<?xml version="1.0" encoding="ISO-8859-1"?>
<modeling>
 <generator>
  <i name="program" type="string">vasp </i>
  <i name="version" type="string">6.2.1  </i>
  <i name="subversion" type="string">16May21 (build Feb 21 2022 05:53:28) complex                          parallel </i>
  <i name="platform" type="string">CrayXC_GCC_OMP </i>
  <i name="date" type="string">2023 03 06 </i>
  <i name="time" type="string">07:07:23 </i>
 </generator>
 <incar>
  <i type="int" name="ISTART">     0</i>
  <i type="string" name="PREC">ACCURATE</i>
  <i type="string" name="ALGO">Damped</i>
  <i type="logical" name="LSUBROT"> T  </i>
  <i type="int" name="IBRION">    -1</i>
  <i name="EDIFF">      0.00001000</i>
  <i name="EDIFFG">     -0.01000000</i>
  <i type="int" name="NSW">     0</i>
  <i type="int" name="ISIF">     2</i>
  <i name="ENCUT">    500.00000000</i>
  <i name="POTIM">      0.10000000</i>
  <i type="int" name="NEDOS">  2001</i>
  <i type="logical" name="LREAL"> F  </i>
  <i name="EMIN">    -10.00000000</i>
  <i name="EMAX">     20.00000000</i>
  <i type="int" name="ISMEAR">    -5</i>
  <i name="SIGMA">      0.01000000</i>
  <i type="logical" name="LWAVE"> T  </i>
  <i type="logical" name="LCHARG"> T  </i>
  <i type="int" name="LORBIT">    11</i>
  <i type="string" name="GGA">PS</i>
 </incar>
 <primitive_cell>
  <structure name="primitive_cell" >
   <crystal>
    <varray name="basis" >
     <v>       4.60094756      -0.00000000       0.00000000 </v>
     <v>       0.00000000       4.60094756       0.00000000 </v>
     <v>      -0.00000000      -0.00000000       2.94242885 </v>
    </varray>
    <i name="volume">     62.28744797 </i>
    <varray name="rec_basis" >
     <v>       0.21734653      -0.00000000       0.00000000 </v>
     <v>       0.00000000       0.21734653       0.00000000 </v>
     <v>      -0.00000000      -0.00000000       0.33985529 </v>
    </varray>
   </crystal>
   <varray name="positions" >
    <v>       0.50000000       0.50000000       0.50000000 </v>
    <v>       0.00000000       0.00000000       0.00000000 </v>
    <v>       0.19567008       0.80432992       0.50000000 </v>
    <v>       0.80432992       0.19567008       0.50000000 </v>
    <v>       0.30432992       0.30432992       0.00000000 </v>
    <v>       0.69567008       0.69567008       0.00000000 </v>
   </varray>
  </structure>
  <varray name="primitive_index" >
   <v type="int" >        1 </v>
   <v type="int" >        2 </v>
   <v type="int" >        3 </v>
   <v type="int" >        4 </v>
   <v type="int" >        5 </v>
   <v type="int" >        6 </v>
  </varray>
 </primitive_cell>
 <kpoints>
  <generation param="Gamma">
   <v type="int" name="divisions">       6        6        9 </v>
   <v name="usershift">      0.00000000       0.00000000       0.00000000 </v>
   <v name="genvec1">      0.16666667      -0.00000000       0.00000000 </v>
   <v name="genvec2">      0.00000000       0.16666667       0.00000000 </v>
   <v name="genvec3">     -0.00000000      -0.00000000       0.11111111 </v>
   <v name="shift">      0.00000000       0.00000000       0.00000000 </v>
  </generation>
  <varray name="kpointlist" >
   <v>       0.00000000       0.00000000       0.00000000 </v>
   <v>       0.16666667       0.00000000       0.00000000 </v>
   <v>       0.33333333       0.00000000       0.00000000 </v>
   <v>       0.50000000       0.00000000       0.00000000 </v>
   <v>       0.16666667       0.16666667       0.00000000 </v>
   <v>       0.33333333       0.16666667       0.00000000 </v>
   <v>       0.50000000       0.16666667       0.00000000 </v>
   <v>       0.33333333       0.33333333       0.00000000 </v>
   <v>       0.50000000       0.33333333       0.00000000 </v>
   <v>       0.50000000       0.50000000       0.00000000 </v>
   <v>       0.00000000       0.00000000       0.11111111 </v>
   <v>       0.16666667       0.00000000       0.11111111 </v>
   <v>       0.33333333       0.00000000       0.11111111 </v>
   <v>       0.50000000       0.00000000       0.11111111 </v>
   <v>       0.16666667       0.16666667       0.11111111 </v>
   <v>       0.33333333       0.16666667       0.11111111 </v>
   <v>       0.50000000       0.16666667       0.11111111 </v>
   <v>       0.33333333       0.33333333       0.11111111 </v>
   <v>       0.50000000       0.33333333       0.11111111 </v>
   <v>       0.50000000       0.50000000       0.11111111 </v>
   <v>       0.00000000       0.00000000       0.22222222 </v>
   <v>       0.16666667       0.00000000       0.22222222 </v>
   <v>       0.33333333       0.00000000       0.22222222 </v>
   <v>       0.50000000       0.00000000       0.22222222 </v>
   <v>       0.16666667       0.16666667       0.22222222 </v>
   <v>       0.33333333       0.16666667       0.22222222 </v>
   <v>       0.50000000       0.16666667       0.22222222 </v>
   <v>       0.33333333       0.33333333       0.22222222 </v>
   <v>       0.50000000       0.33333333       0.22222222 </v>
   <v>       0.50000000       0.50000000       0.22222222 </v>
   <v>       0.00000000       0.00000000       0.33333333 </v>
   <v>       0.16666667       0.00000000       0.33333333 </v>
   <v>       0.33333333       0.00000000       0.33333333 </v>
   <v>       0.50000000       0.00000000       0.33333333 </v>
   <v>       0.16666667       0.16666667       0.33333333 </v>
   <v>       0.33333333       0.16666667       0.33333333 </v>
   <v>       0.50000000       0.16666667       0.33333333 </v>
   <v>       0.33333333       0.33333333       0.33333333 </v>
   <v>       0.50000000       0.33333333       0.33333333 </v>
   <v>       0.50000000       0.50000000       0.33333333 </v>
   <v>       0.00000000       0.00000000       0.44444444 </v>
   <v>       0.16666667       0.00000000       0.44444444 </v>
   <v>       0.33333333       0.00000000       0.44444444 </v>
   <v>       0.50000000       0.00000000       0.44444444 </v>
   <v>       0.16666667       0.16666667       0.44444444 </v>
   <v>       0.33333333       0.16666667       0.44444444 </v>
   <v>       0.50000000       0.16666667       0.44444444 </v>
   <v>       0.33333333       0.33333333       0.44444444 </v>
   <v>       0.50000000       0.33333333       0.44444444 </v>
   <v>       0.50000000       0.50000000       0.44444444 </v>
  </varray>
  <varray name="weights" >
   <v>       0.00308642 </v>
   <v>       0.01234568 </v>
   <v>       0.01234568 </v>
   <v>       0.00617284 </v>
   <v>       0.01234568 </v>
   <v>       0.02469136 </v>
   <v>       0.01234568 </v>
   <v>       0.01234568 </v>
   <v>       0.01234568 </v>
   <v>       0.00308642 </v>
   <v>       0.00617284 </v>
   <v>       0.02469136 </v>
   <v>       0.02469136 </v>
   <v>       0.01234568 </v>
   <v>       0.02469136 </v>
   <v>       0.04938272 </v>
   <v>       0.02469136 </v>
   <v>       0.02469136 </v>
   <v>       0.02469136 </v>
   <v>       0.00617284 </v>
   <v>       0.00617284 </v>
   <v>       0.02469136 </v>
   <v>       0.02469136 </v>
   <v>       0.01234568 </v>
   <v>       0.02469136 </v>
   <v>       0.04938272 </v>
   <v>       0.02469136 </v>
   <v>       0.02469136 </v>
   <v>       0.02469136 </v>
   <v>       0.00617284 </v>
   <v>       0.00617284 </v>
   <v>       0.02469136 </v>
   <v>       0.02469136 </v>
   <v>       0.01234568 </v>
   <v>       0.02469136 </v>
   <v>       0.04938272 </v>
   <v>       0.02469136 </v>
   <v>       0.02469136 </v>
   <v>       0.02469136 </v>
   <v>       0.00617284 </v>
   <v>       0.00617284 </v>
   <v>       0.02469136 </v>
   <v>       0.02469136 </v>
   <v>       0.01234568 </v>
   <v>       0.02469136 </v>
   <v>       0.04938272 </v>
   <v>       0.02469136 </v>
   <v>       0.02469136 </v>
   <v>       0.02469136 </v>
   <v>       0.00617284 </v>
  </varray>
  <varray name="tetrahedronlist"  type="int" >
   <v type="int" >        4        1        2        5       11 </v>
   <v type="int" >        4        2        5       11       12 </v>
   <v type="int" >        4        5       11       12       15 </v>
   <v type="int" >        4        2        3        6       12 </v>
   <v type="int" >        4        2        5        6       12 </v>
   <v type="int" >        4        5        6       12       15 </v>
   <v type="int" >        4        3        6       12       13 </v>
   <v type="int" >        4        6       12       13       16 </v>
   <v type="int" >        4        6       12       15       16 </v>
   <v type="int" >        4        3        4        7       13 </v>
   <v type="int" >        4        3        6        7       13 </v>
   <v type="int" >        4        6        7       13       16 </v>
   <v type="int" >        4        4        7       13       14 </v>
   <v type="int" >        4        7       13       14       17 </v>
   <v type="int" >        4        7       13       16       17 </v>
   <v type="int" >        4        3        4        6       14 </v>
   <v type="int" >        4        4        6        7       14 </v>
   <v type="int" >        4        6        7       14       17 </v>
   <v type="int" >        4        3        6       13       14 </v>
   <v type="int" >        4        6       13       14       16 </v>
   <v type="int" >        4        6       14       16       17 </v>
   <v type="int" >        4        2        3        5       13 </v>
   <v type="int" >        4        3        5        6       13 </v>
   <v type="int" >        4        5        6       13       16 </v>
   <v type="int" >        4        2        5       12       13 </v>
   <v type="int" >        4        5       12       13       15 </v>
   <v type="int" >        4        5       13       15       16 </v>
   <v type="int" >        4        1        2        2       12 </v>
   <v type="int" >        4        2        2        5       12 </v>
   <v type="int" >        4        2        5       12       15 </v>
   <v type="int" >        4        1        2       11       12 </v>
   <v type="int" >        4        2       11       12       12 </v>
   <v type="int" >        4        2       12       12       15 </v>
   <v type="int" >        4        5        6        8       15 </v>
   <v type="int" >        4        6        8       15       16 </v>
   <v type="int" >        4        8       15       16       18 </v>
   <v type="int" >        4        6        7        9       16 </v>
   <v type="int" >        4        6        8        9       16 </v>
   <v type="int" >        4        8        9       16       18 </v>
   <v type="int" >        4        7        9       16       17 </v>
   <v type="int" >        4        9       16       17       19 </v>
   <v type="int" >        4        9       16       18       19 </v>
   <v type="int" >        4        6        7        8       17 </v>
   <v type="int" >        4        7        8        9       17 </v>
   <v type="int" >        4        8        9       17       19 </v>
   <v type="int" >        4        6        8       16       17 </v>
   <v type="int" >        4        8       16       17       18 </v>
   <v type="int" >        4        8       17       18       19 </v>
   <v type="int" >        4        5        6        6       16 </v>
   <v type="int" >        4        6        6        8       16 </v>
   <v type="int" >        4        6        8       16       18 </v>
   <v type="int" >        4        5        6       15       16 </v>
   <v type="int" >        4        6       15       16       16 </v>
   <v type="int" >        4        6       16       16       18 </v>
   <v type="int" >        4        2        3        5       15 </v>
   <v type="int" >        4        3        5        6       15 </v>
   <v type="int" >        4        3        6       15       16 </v>
   <v type="int" >        4        2        3       12       15 </v>
   <v type="int" >        4        3       12       13       15 </v>
   <v type="int" >        4        3       13       15       16 </v>
   <v type="int" >        4        8        9       10       18 </v>
   <v type="int" >        4        9       10       18       19 </v>
   <v type="int" >        4       10       18       19       20 </v>
   <v type="int" >        4        8        9        9       19 </v>
   <v type="int" >        4        9        9       10       19 </v>
   <v type="int" >        4        9       10       19       20 </v>
   <v type="int" >        4        8        9       18       19 </v>
   <v type="int" >        4        9       18       19       19 </v>
   <v type="int" >        4        9       19       19       20 </v>
   <v type="int" >        4        6        7        8       18 </v>
   <v type="int" >        4        7        8        9       18 </v>
   <v type="int" >        4        7        9       18       19 </v>
   <v type="int" >        4        6        7       16       18 </v>
   <v type="int" >        4        7       16       17       18 </v>
   <v type="int" >        4        7       17       18       19 </v>
   <v type="int" >        4        3        4        6       16 </v>
   <v type="int" >        4        4        6        7       16 </v>
   <v type="int" >        4        4        7       16       17 </v>
   <v type="int" >        4        3        4       13       16 </v>
   <v type="int" >        4        4       13       14       16 </v>
   <v type="int" >        4        4       14       16       17 </v>
   <v type="int" >        4        8        9       10       20 </v>
   <v type="int" >        4        8        9       19       20 </v>
   <v type="int" >        4        8       18       19       20 </v>
   <v type="int" >        4        6        7        9       19 </v>
   <v type="int" >        4        6        8        9       19 </v>
   <v type="int" >        4        6        8       18       19 </v>
   <v type="int" >        4        6        7       17       19 </v>
   <v type="int" >        4        6       16       17       19 </v>
   <v type="int" >        4        6       16       18       19 </v>
   <v type="int" >        4        3        4        7       17 </v>
   <v type="int" >        4        3        6        7       17 </v>
   <v type="int" >        4        3        6       16       17 </v>
   <v type="int" >        4        3        4       14       17 </v>
   <v type="int" >        4        3       13       14       17 </v>
   <v type="int" >        4        3       13       16       17 </v>
   <v type="int" >        4        5        6        8       18 </v>
   <v type="int" >        4        5        6       16       18 </v>
   <v type="int" >        4        5       15       16       18 </v>
   <v type="int" >        4        2        3        6       16 </v>
   <v type="int" >        4        2        5        6       16 </v>
   <v type="int" >        4        2        5       15       16 </v>
   <v type="int" >        4        2        3       13       16 </v>
   <v type="int" >        4        2       12       13       16 </v>
   <v type="int" >        4        2       12       15       16 </v>
   <v type="int" >        4        1        2        5       15 </v>
   <v type="int" >        4        1        2       12       15 </v>
   <v type="int" >        4        1       11       12       15 </v>
   <v type="int" >        4       11       12       15       21 </v>
   <v type="int" >        4       12       15       21       22 </v>
   <v type="int" >        4       15       21       22       25 </v>
   <v type="int" >        4       12       13       16       22 </v>
   <v type="int" >        4       12       15       16       22 </v>
   <v type="int" >        4       15       16       22       25 </v>
   <v type="int" >        4       13       16       22       23 </v>
   <v type="int" >        4       16       22       23       26 </v>
   <v type="int" >        4       16       22       25       26 </v>
   <v type="int" >        4       13       14       17       23 </v>
   <v type="int" >        4       13       16       17       23 </v>
   <v type="int" >        4       16       17       23       26 </v>
   <v type="int" >        4       14       17       23       24 </v>
   <v type="int" >        4       17       23       24       27 </v>
   <v type="int" >        4       17       23       26       27 </v>
   <v type="int" >        4       13       14       16       24 </v>
   <v type="int" >        4       14       16       17       24 </v>
   <v type="int" >        4       16       17       24       27 </v>
   <v type="int" >        4       13       16       23       24 </v>
   <v type="int" >        4       16       23       24       26 </v>
   <v type="int" >        4       16       24       26       27 </v>
   <v type="int" >        4       12       13       15       23 </v>
   <v type="int" >        4       13       15       16       23 </v>
   <v type="int" >        4       15       16       23       26 </v>
   <v type="int" >        4       12       15       22       23 </v>
   <v type="int" >        4       15       22       23       25 </v>
   <v type="int" >        4       15       23       25       26 </v>
   <v type="int" >        4       11       12       12       22 </v>
   <v type="int" >        4       12       12       15       22 </v>
   <v type="int" >        4       12       15       22       25 </v>
   <v type="int" >        4       11       12       21       22 </v>
   <v type="int" >        4       12       21       22       22 </v>
   <v type="int" >        4       12       22       22       25 </v>
   <v type="int" >        4       15       16       18       25 </v>
   <v type="int" >        4       16       18       25       26 </v>
   <v type="int" >        4       18       25       26       28 </v>
   <v type="int" >        4       16       17       19       26 </v>
   <v type="int" >        4       16       18       19       26 </v>
   <v type="int" >        4       18       19       26       28 </v>
   <v type="int" >        4       17       19       26       27 </v>
   <v type="int" >        4       19       26       27       29 </v>
   <v type="int" >        4       19       26       28       29 </v>
   <v type="int" >        4       16       17       18       27 </v>
   <v type="int" >        4       17       18       19       27 </v>
   <v type="int" >        4       18       19       27       29 </v>
   <v type="int" >        4       16       18       26       27 </v>
   <v type="int" >        4       18       26       27       28 </v>
   <v type="int" >        4       18       27       28       29 </v>
   <v type="int" >        4       15       16       16       26 </v>
   <v type="int" >        4       16       16       18       26 </v>
   <v type="int" >        4       16       18       26       28 </v>
   <v type="int" >        4       15       16       25       26 </v>
   <v type="int" >        4       16       25       26       26 </v>
   <v type="int" >        4       16       26       26       28 </v>
   <v type="int" >        4       12       13       15       25 </v>
   <v type="int" >        4       13       15       16       25 </v>
   <v type="int" >        4       13       16       25       26 </v>
   <v type="int" >        4       12       13       22       25 </v>
   <v type="int" >        4       13       22       23       25 </v>
   <v type="int" >        4       13       23       25       26 </v>
   <v type="int" >        4       18       19       20       28 </v>
   <v type="int" >        4       19       20       28       29 </v>
   <v type="int" >        4       20       28       29       30 </v>
   <v type="int" >        4       18       19       19       29 </v>
   <v type="int" >        4       19       19       20       29 </v>
   <v type="int" >        4       19       20       29       30 </v>
   <v type="int" >        4       18       19       28       29 </v>
   <v type="int" >        4       19       28       29       29 </v>
   <v type="int" >        4       19       29       29       30 </v>
   <v type="int" >        4       16       17       18       28 </v>
   <v type="int" >        4       17       18       19       28 </v>
   <v type="int" >        4       17       19       28       29 </v>
   <v type="int" >        4       16       17       26       28 </v>
   <v type="int" >        4       17       26       27       28 </v>
   <v type="int" >        4       17       27       28       29 </v>
   <v type="int" >        4       13       14       16       26 </v>
   <v type="int" >        4       14       16       17       26 </v>
   <v type="int" >        4       14       17       26       27 </v>
   <v type="int" >        4       13       14       23       26 </v>
   <v type="int" >        4       14       23       24       26 </v>
   <v type="int" >        4       14       24       26       27 </v>
   <v type="int" >        4       18       19       20       30 </v>
   <v type="int" >        4       18       19       29       30 </v>
   <v type="int" >        4       18       28       29       30 </v>
   <v type="int" >        4       16       17       19       29 </v>
   <v type="int" >        4       16       18       19       29 </v>
   <v type="int" >        4       16       18       28       29 </v>
   <v type="int" >        4       16       17       27       29 </v>
   <v type="int" >        4       16       26       27       29 </v>
   <v type="int" >        4       16       26       28       29 </v>
   <v type="int" >        4       13       14       17       27 </v>
   <v type="int" >        4       13       16       17       27 </v>
   <v type="int" >        4       13       16       26       27 </v>
   <v type="int" >        4       13       14       24       27 </v>
   <v type="int" >        4       13       23       24       27 </v>
   <v type="int" >        4       13       23       26       27 </v>
   <v type="int" >        4       15       16       18       28 </v>
   <v type="int" >        4       15       16       26       28 </v>
   <v type="int" >        4       15       25       26       28 </v>
   <v type="int" >        4       12       13       16       26 </v>
   <v type="int" >        4       12       15       16       26 </v>
   <v type="int" >        4       12       15       25       26 </v>
   <v type="int" >        4       12       13       23       26 </v>
   <v type="int" >        4       12       22       23       26 </v>
   <v type="int" >        4       12       22       25       26 </v>
   <v type="int" >        4       11       12       15       25 </v>
   <v type="int" >        4       11       12       22       25 </v>
   <v type="int" >        4       11       21       22       25 </v>
   <v type="int" >        4       21       22       25       31 </v>
   <v type="int" >        4       22       25       31       32 </v>
   <v type="int" >        4       25       31       32       35 </v>
   <v type="int" >        4       22       23       26       32 </v>
   <v type="int" >        4       22       25       26       32 </v>
   <v type="int" >        4       25       26       32       35 </v>
   <v type="int" >        4       23       26       32       33 </v>
   <v type="int" >        4       26       32       33       36 </v>
   <v type="int" >        4       26       32       35       36 </v>
   <v type="int" >        4       23       24       27       33 </v>
   <v type="int" >        4       23       26       27       33 </v>
   <v type="int" >        4       26       27       33       36 </v>
   <v type="int" >        4       24       27       33       34 </v>
   <v type="int" >        4       27       33       34       37 </v>
   <v type="int" >        4       27       33       36       37 </v>
   <v type="int" >        4       23       24       26       34 </v>
   <v type="int" >        4       24       26       27       34 </v>
   <v type="int" >        4       26       27       34       37 </v>
   <v type="int" >        4       23       26       33       34 </v>
   <v type="int" >        4       26       33       34       36 </v>
   <v type="int" >        4       26       34       36       37 </v>
   <v type="int" >        4       22       23       25       33 </v>
   <v type="int" >        4       23       25       26       33 </v>
   <v type="int" >        4       25       26       33       36 </v>
   <v type="int" >        4       22       25       32       33 </v>
   <v type="int" >        4       25       32       33       35 </v>
   <v type="int" >        4       25       33       35       36 </v>
   <v type="int" >        4       21       22       22       32 </v>
   <v type="int" >        4       22       22       25       32 </v>
   <v type="int" >        4       22       25       32       35 </v>
   <v type="int" >        4       21       22       31       32 </v>
   <v type="int" >        4       22       31       32       32 </v>
   <v type="int" >        4       22       32       32       35 </v>
   <v type="int" >        4       25       26       28       35 </v>
   <v type="int" >        4       26       28       35       36 </v>
   <v type="int" >        4       28       35       36       38 </v>
   <v type="int" >        4       26       27       29       36 </v>
   <v type="int" >        4       26       28       29       36 </v>
   <v type="int" >        4       28       29       36       38 </v>
   <v type="int" >        4       27       29       36       37 </v>
   <v type="int" >        4       29       36       37       39 </v>
   <v type="int" >        4       29       36       38       39 </v>
   <v type="int" >        4       26       27       28       37 </v>
   <v type="int" >        4       27       28       29       37 </v>
   <v type="int" >        4       28       29       37       39 </v>
   <v type="int" >        4       26       28       36       37 </v>
   <v type="int" >        4       28       36       37       38 </v>
   <v type="int" >        4       28       37       38       39 </v>
   <v type="int" >        4       25       26       26       36 </v>
   <v type="int" >        4       26       26       28       36 </v>
   <v type="int" >        4       26       28       36       38 </v>
   <v type="int" >        4       25       26       35       36 </v>
   <v type="int" >        4       26       35       36       36 </v>
   <v type="int" >        4       26       36       36       38 </v>
   <v type="int" >        4       22       23       25       35 </v>
   <v type="int" >        4       23       25       26       35 </v>
   <v type="int" >        4       23       26       35       36 </v>
   <v type="int" >        4       22       23       32       35 </v>
   <v type="int" >        4       23       32       33       35 </v>
   <v type="int" >        4       23       33       35       36 </v>
   <v type="int" >        4       28       29       30       38 </v>
   <v type="int" >        4       29       30       38       39 </v>
   <v type="int" >        4       30       38       39       40 </v>
   <v type="int" >        4       28       29       29       39 </v>
   <v type="int" >        4       29       29       30       39 </v>
   <v type="int" >        4       29       30       39       40 </v>
   <v type="int" >        4       28       29       38       39 </v>
   <v type="int" >        4       29       38       39       39 </v>
   <v type="int" >        4       29       39       39       40 </v>
   <v type="int" >        4       26       27       28       38 </v>
   <v type="int" >        4       27       28       29       38 </v>
   <v type="int" >        4       27       29       38       39 </v>
   <v type="int" >        4       26       27       36       38 </v>
   <v type="int" >        4       27       36       37       38 </v>
   <v type="int" >        4       27       37       38       39 </v>
   <v type="int" >        4       23       24       26       36 </v>
   <v type="int" >        4       24       26       27       36 </v>
   <v type="int" >        4       24       27       36       37 </v>
   <v type="int" >        4       23       24       33       36 </v>
   <v type="int" >        4       24       33       34       36 </v>
   <v type="int" >        4       24       34       36       37 </v>
   <v type="int" >        4       28       29       30       40 </v>
   <v type="int" >        4       28       29       39       40 </v>
   <v type="int" >        4       28       38       39       40 </v>
   <v type="int" >        4       26       27       29       39 </v>
   <v type="int" >        4       26       28       29       39 </v>
   <v type="int" >        4       26       28       38       39 </v>
   <v type="int" >        4       26       27       37       39 </v>
   <v type="int" >        4       26       36       37       39 </v>
   <v type="int" >        4       26       36       38       39 </v>
   <v type="int" >        4       23       24       27       37 </v>
   <v type="int" >        4       23       26       27       37 </v>
   <v type="int" >        4       23       26       36       37 </v>
   <v type="int" >        4       23       24       34       37 </v>
   <v type="int" >        4       23       33       34       37 </v>
   <v type="int" >        4       23       33       36       37 </v>
   <v type="int" >        4       25       26       28       38 </v>
   <v type="int" >        4       25       26       36       38 </v>
   <v type="int" >        4       25       35       36       38 </v>
   <v type="int" >        4       22       23       26       36 </v>
   <v type="int" >        4       22       25       26       36 </v>
   <v type="int" >        4       22       25       35       36 </v>
   <v type="int" >        4       22       23       33       36 </v>
   <v type="int" >        4       22       32       33       36 </v>
   <v type="int" >        4       22       32       35       36 </v>
   <v type="int" >        4       21       22       25       35 </v>
   <v type="int" >        4       21       22       32       35 </v>
   <v type="int" >        4       21       31       32       35 </v>
   <v type="int" >        4       31       32       35       41 </v>
   <v type="int" >        4       32       35       41       42 </v>
   <v type="int" >        4       35       41       42       45 </v>
   <v type="int" >        4       32       33       36       42 </v>
   <v type="int" >        4       32       35       36       42 </v>
   <v type="int" >        4       35       36       42       45 </v>
   <v type="int" >        4       33       36       42       43 </v>
   <v type="int" >        4       36       42       43       46 </v>
   <v type="int" >        4       36       42       45       46 </v>
   <v type="int" >        4       33       34       37       43 </v>
   <v type="int" >        4       33       36       37       43 </v>
   <v type="int" >        4       36       37       43       46 </v>
   <v type="int" >        4       34       37       43       44 </v>
   <v type="int" >        4       37       43       44       47 </v>
   <v type="int" >        4       37       43       46       47 </v>
   <v type="int" >        4       33       34       36       44 </v>
   <v type="int" >        4       34       36       37       44 </v>
   <v type="int" >        4       36       37       44       47 </v>
   <v type="int" >        4       33       36       43       44 </v>
   <v type="int" >        4       36       43       44       46 </v>
   <v type="int" >        4       36       44       46       47 </v>
   <v type="int" >        4       32       33       35       43 </v>
   <v type="int" >        4       33       35       36       43 </v>
   <v type="int" >        4       35       36       43       46 </v>
   <v type="int" >        4       32       35       42       43 </v>
   <v type="int" >        4       35       42       43       45 </v>
   <v type="int" >        4       35       43       45       46 </v>
   <v type="int" >        4       31       32       32       42 </v>
   <v type="int" >        4       32       32       35       42 </v>
   <v type="int" >        4       32       35       42       45 </v>
   <v type="int" >        4       31       32       41       42 </v>
   <v type="int" >        4       32       41       42       42 </v>
   <v type="int" >        4       32       42       42       45 </v>
   <v type="int" >        4       35       36       38       45 </v>
   <v type="int" >        4       36       38       45       46 </v>
   <v type="int" >        4       38       45       46       48 </v>
   <v type="int" >        4       36       37       39       46 </v>
   <v type="int" >        4       36       38       39       46 </v>
   <v type="int" >        4       38       39       46       48 </v>
   <v type="int" >        4       37       39       46       47 </v>
   <v type="int" >        4       39       46       47       49 </v>
   <v type="int" >        4       39       46       48       49 </v>
   <v type="int" >        4       36       37       38       47 </v>
   <v type="int" >        4       37       38       39       47 </v>
   <v type="int" >        4       38       39       47       49 </v>
   <v type="int" >        4       36       38       46       47 </v>
   <v type="int" >        4       38       46       47       48 </v>
   <v type="int" >        4       38       47       48       49 </v>
   <v type="int" >        4       35       36       36       46 </v>
   <v type="int" >        4       36       36       38       46 </v>
   <v type="int" >        4       36       38       46       48 </v>
   <v type="int" >        4       35       36       45       46 </v>
   <v type="int" >        4       36       45       46       46 </v>
   <v type="int" >        4       36       46       46       48 </v>
   <v type="int" >        4       32       33       35       45 </v>
   <v type="int" >        4       33       35       36       45 </v>
   <v type="int" >        4       33       36       45       46 </v>
   <v type="int" >        4       32       33       42       45 </v>
   <v type="int" >        4       33       42       43       45 </v>
   <v type="int" >        4       33       43       45       46 </v>
   <v type="int" >        4       38       39       40       48 </v>
   <v type="int" >        4       39       40       48       49 </v>
   <v type="int" >        4       40       48       49       50 </v>
   <v type="int" >        4       38       39       39       49 </v>
   <v type="int" >        4       39       39       40       49 </v>
   <v type="int" >        4       39       40       49       50 </v>
   <v type="int" >        4       38       39       48       49 </v>
   <v type="int" >        4       39       48       49       49 </v>
   <v type="int" >        4       39       49       49       50 </v>
   <v type="int" >        4       36       37       38       48 </v>
   <v type="int" >        4       37       38       39       48 </v>
   <v type="int" >        4       37       39       48       49 </v>
   <v type="int" >        4       36       37       46       48 </v>
   <v type="int" >        4       37       46       47       48 </v>
   <v type="int" >        4       37       47       48       49 </v>
   <v type="int" >        4       33       34       36       46 </v>
   <v type="int" >        4       34       36       37       46 </v>
   <v type="int" >        4       34       37       46       47 </v>
   <v type="int" >        4       33       34       43       46 </v>
   <v type="int" >        4       34       43       44       46 </v>
   <v type="int" >        4       34       44       46       47 </v>
   <v type="int" >        4       38       39       40       50 </v>
   <v type="int" >        4       38       39       49       50 </v>
   <v type="int" >        4       38       48       49       50 </v>
   <v type="int" >        4       36       37       39       49 </v>
   <v type="int" >        4       36       38       39       49 </v>
   <v type="int" >        4       36       38       48       49 </v>
   <v type="int" >        4       36       37       47       49 </v>
   <v type="int" >        4       36       46       47       49 </v>
   <v type="int" >        4       36       46       48       49 </v>
   <v type="int" >        4       33       34       37       47 </v>
   <v type="int" >        4       33       36       37       47 </v>
   <v type="int" >        4       33       36       46       47 </v>
   <v type="int" >        4       33       34       44       47 </v>
   <v type="int" >        4       33       43       44       47 </v>
   <v type="int" >        4       33       43       46       47 </v>
   <v type="int" >        4       35       36       38       48 </v>
   <v type="int" >        4       35       36       46       48 </v>
   <v type="int" >        4       35       45       46       48 </v>
   <v type="int" >        4       32       33       36       46 </v>
   <v type="int" >        4       32       35       36       46 </v>
   <v type="int" >        4       32       35       45       46 </v>
   <v type="int" >        4       32       33       43       46 </v>
   <v type="int" >        4       32       42       43       46 </v>
   <v type="int" >        4       32       42       45       46 </v>
   <v type="int" >        4       31       32       35       45 </v>
   <v type="int" >        4       31       32       42       45 </v>
   <v type="int" >        4       31       41       42       45 </v>
   <v type="int" >        4       41       41       42       45 </v>
   <v type="int" >        4       41       42       42       45 </v>
   <v type="int" >        4       41       42       45       45 </v>
   <v type="int" >        4       42       42       43       46 </v>
   <v type="int" >        4       42       42       45       46 </v>
   <v type="int" >        4       42       45       45       46 </v>
   <v type="int" >        4       42       43       43       46 </v>
   <v type="int" >        4       42       43       46       46 </v>
   <v type="int" >        4       42       45       46       46 </v>
   <v type="int" >        4       43       43       44       47 </v>
   <v type="int" >        4       43       43       46       47 </v>
   <v type="int" >        4       43       46       46       47 </v>
   <v type="int" >        4       43       44       44       47 </v>
   <v type="int" >        4       43       44       47       47 </v>
   <v type="int" >        4       43       46       47       47 </v>
   <v type="int" >        4       43       44       44       46 </v>
   <v type="int" >        4       44       44       46       47 </v>
   <v type="int" >        4       44       46       47       47 </v>
   <v type="int" >        4       43       43       44       46 </v>
   <v type="int" >        4       43       44       46       46 </v>
   <v type="int" >        4       44       46       46       47 </v>
   <v type="int" >        4       42       43       43       45 </v>
   <v type="int" >        4       43       43       45       46 </v>
   <v type="int" >        4       43       45       46       46 </v>
   <v type="int" >        4       42       42       43       45 </v>
   <v type="int" >        4       42       43       45       45 </v>
   <v type="int" >        4       43       45       45       46 </v>
   <v type="int" >        4       41       42       42       42 </v>
   <v type="int" >        4       42       42       42       45 </v>
   <v type="int" >        2       42       42       45       45 </v>
   <v type="int" >        2       41       41       42       42 </v>
   <v type="int" >        4       45       45       46       48 </v>
   <v type="int" >        4       45       46       46       48 </v>
   <v type="int" >        4       45       46       48       48 </v>
   <v type="int" >        4       46       46       47       49 </v>
   <v type="int" >        4       46       46       48       49 </v>
   <v type="int" >        4       46       48       48       49 </v>
   <v type="int" >        4       46       47       47       49 </v>
   <v type="int" >        4       46       47       49       49 </v>
   <v type="int" >        4       46       48       49       49 </v>
   <v type="int" >        4       46       47       47       48 </v>
   <v type="int" >        4       47       47       48       49 </v>
   <v type="int" >        4       47       48       49       49 </v>
   <v type="int" >        4       46       46       47       48 </v>
   <v type="int" >        4       46       47       48       48 </v>
   <v type="int" >        4       47       48       48       49 </v>
   <v type="int" >        4       45       46       46       46 </v>
   <v type="int" >        4       46       46       46       48 </v>
   <v type="int" >        2       46       46       48       48 </v>
   <v type="int" >        2       45       45       46       46 </v>
   <v type="int" >        4       48       48       49       50 </v>
   <v type="int" >        4       48       49       49       50 </v>
   <v type="int" >        4       48       49       50       50 </v>
   <v type="int" >        4       48       49       49       49 </v>
   <v type="int" >        4       49       49       49       50 </v>
   <v type="int" >        2       49       49       50       50 </v>
   <v type="int" >        2       48       48       49       49 </v>
  </varray>
  <i name="volumeweight">      0.00051440 </i>
 </kpoints>
 <parameters>
  <separator name="general" >
   <i type="string" name="SYSTEM">unknown system</i>
   <i type="logical" name="LCOMPAT"> F  </i>
  </separator>
  <separator name="electronic" >
   <i type="string" name="PREC">accura</i>
   <i name="ENMAX">    500.00000000</i>
   <i name="ENAUG">    605.39200000</i>
   <i name="EDIFF">      0.00001000</i>
   <i type="int" name="IALGO">    53</i>
   <i type="int" name="IWAVPR">    10</i>
   <i type="int" name="NBANDS">    32</i>
   <i type="int" name="NBANDSLOW">    -1</i>
   <i type="int" name="NBANDSHIGH">    -1</i>
   <i name="NELECT">     44.00000000</i>
   <i type="int" name="TURBO">     0</i>
   <i type="int" name="IRESTART">     0</i>
   <i type="int" name="NREBOOT">     0</i>
   <i type="int" name="NMIN">     0</i>
   <i name="EREF">      0.00000000</i>
   <separator name="electronic smearing" >
    <i type="int" name="ISMEAR">    -5</i>
    <i name="SIGMA">      0.01000000</i>
    <i name="KSPACING">      0.50000000</i>
    <i type="logical" name="KGAMMA"> T  </i>
    <i type="logical" name="KBLOWUP"> T  </i>
   </separator>
   <separator name="electronic projectors" >
    <i type="logical" name="LREAL"> F  </i>
    <v name="ROPT">      0.00000000      0.00000000</v>
    <i type="int" name="LMAXPAW">  -100</i>
    <i type="int" name="LMAXMIX">     2</i>
    <i type="logical" name="NLSPLINE"> F  </i>
   </separator>
   <separator name="electronic startup" >
    <i type="int" name="ISTART">     0</i>
    <i type="int" name="ICHARG">     2</i>
    <i type="int" name="INIWAV">     1</i>
   </separator>
   <separator name="electronic spin" >
    <i type="int" name="ISPIN">     1</i>
    <i type="logical" name="LNONCOLLINEAR"> F  </i>
    <v name="MAGMOM">      1.00000000      1.00000000      1.00000000      1.00000000      1.00000000      1.00000000</v>
    <i name="NUPDOWN">     -1.00000000</i>
    <i type="logical" name="LSORBIT"> F  </i>
    <v name="SAXIS">      0.00000000      0.00000000      1.00000000</v>
    <i type="logical" name="LSPIRAL"> F  </i>
    <v name="QSPIRAL">      0.00000000      0.00000000      0.00000000</v>
    <i type="logical" name="LZEROZ"> F  </i>
   </separator>
   <separator name="electronic exchange-correlation" >
    <i type="logical" name="LASPH"> F  </i>
    <i type="logical" name="LMETAGGA"> F  </i>
   </separator>
   <separator name="electronic convergence" >
    <i type="int" name="NELM">    60</i>
    <i type="int" name="NELMDL">    -5</i>
    <i type="int" name="NELMIN">     2</i>
    <i name="ENINI">    500.00000000</i>
    <separator name="electronic convergence detail" >
     <i type="logical" name="LDIAG"> T  </i>
     <i type="logical" name="LSUBROT"> T  </i>
     <i name="WEIMIN">      0.00000000</i>
     <i name="EBREAK">      0.00000008</i>
     <i name="DEPER">      0.30000000</i>
     <i type="int" name="NRMM">     4</i>
     <i name="TIME">      0.40000000</i>
    </separator>
   </separator>
   <separator name="electronic mixer" >
    <i name="AMIX">      0.40000000</i>
    <i name="BMIX">      1.00000000</i>
    <i name="AMIN">      0.10000000</i>
    <i name="AMIX_MAG">      1.60000000</i>
    <i name="BMIX_MAG">      1.00000000</i>
    <separator name="electronic mixer details" >
     <i type="int" name="IMIX">     4</i>
     <i type="logical" name="MIXFIRST"> F  </i>
     <i type="int" name="MAXMIX">   -45</i>
     <i name="WC">    100.00000000</i>
     <i type="int" name="INIMIX">     1</i>
     <i type="int" name="MIXPRE">     1</i>
     <i type="int" name="MREMOVE">     5</i>
    </separator>
   </separator>
   <separator name="electronic dipolcorrection" >
    <i type="logical" name="LDIPOL"> F  </i>
    <i type="logical" name="LMONO"> F  </i>
    <i type="int" name="IDIPOL">     0</i>
    <i name="EPSILON">      1.00000000</i>
    <v name="DIPOL">   -100.00000000   -100.00000000   -100.00000000</v>
    <i name="EFIELD">      0.00000000</i>
   </separator>
  </separator>
  <separator name="grids" >
   <i type="int" name="NGX">    36</i>
   <i type="int" name="NGY">    36</i>
   <i type="int" name="NGZ">    24</i>
   <i type="int" name="NGXF">    72</i>
   <i type="int" name="NGYF">    72</i>
   <i type="int" name="NGZF">    48</i>
   <i type="logical" name="ADDGRID"> F  </i>
  </separator>
  <separator name="ionic" >
   <i type="int" name="NSW">     0</i>
   <i type="int" name="IBRION">    -1</i>
   <i type="int" name="MDALGO">     0</i>
   <i type="int" name="ISIF">     2</i>
   <i name="PSTRESS">      0.00000000</i>
   <i name="EDIFFG">     -0.01000000</i>
   <i type="int" name="NFREE">     0</i>
   <i name="POTIM">      0.10000000</i>
   <i name="SMASS">     -3.00000000</i>
   <i name="SCALEE">      1.00000000</i>
  </separator>
  <separator name="ionic md" >
   <i name="TEBEG">      0.00010000</i>
   <i name="TEEND">      0.00010000</i>
   <i type="int" name="NBLOCK">     1</i>
   <i type="int" name="KBLOCK">     1</i>
   <i type="int" name="NPACO">   256</i>
   <i name="APACO">     16.00000000</i>
  </separator>
  <separator name="symmetry" >
   <i type="int" name="ISYM">     2</i>
   <i name="SYMPREC">      0.00001000</i>
  </separator>
  <separator name="dos" >
   <i type="int" name="LORBIT">    11</i>
   <v name="RWIGS">     -1.00000000     -1.00000000</v>
   <i type="int" name="NEDOS">  2001</i>
   <i name="EMIN">    -10.00000000</i>
   <i name="EMAX">     20.00000000</i>
   <i name="EFERMI">      0.00000000</i>
  </separator>
  <separator name="writing" >
   <i type="int" name="NWRITE">     2</i>
   <i type="logical" name="LWAVE"> T  </i>
   <i type="logical" name="LDOWNSAMPLE"> F  </i>
   <i type="logical" name="LCHARG"> T  </i>
   <i type="logical" name="LPARD"> F  </i>
   <i type="logical" name="LVTOT"> F  </i>
   <i type="logical" name="LVHAR"> F  </i>
   <i type="logical" name="LELF"> F  </i>
   <i type="logical" name="LOPTICS"> F  </i>
   <v name="STM">      0.00000000      0.00000000      0.00000000      0.00000000      0.00000000      0.00000000      0.00000000</v>
  </separator>
  <separator name="performance" >
   <i type="int" name="NPAR">    16</i>
   <i type="int" name="NSIM">     4</i>
   <i type="int" name="NBLK">    -1</i>
   <i type="logical" name="LPLANE"> T  </i>
   <i type="logical" name="LSCALAPACK"> T  </i>
   <i type="logical" name="LSCAAWARE"> T  </i>
   <i type="logical" name="LSCALU"> F  </i>
   <i type="logical" name="LASYNC"> F  </i>
   <i type="logical" name="LORBITALREAL"> F  </i>
  </separator>
  <separator name="miscellaneous" >
   <i type="int" name="IDIOT">     3</i>
   <i type="int" name="PHON_NSTRUCT">    -1</i>
   <i type="logical" name="LMUSIC"> F  </i>
   <v name="POMASS">     47.88000000     16.00000000</v>
   <v name="DARWINR">      0.00000000      0.00000000</v>
   <v name="DARWINV">      1.00000000      1.00000000</v>
   <i type="logical" name="LCORR"> T  </i>
  </separator>
  <i type="logical" name="GGA_COMPAT"> T  </i>
  <i type="logical" name="LBERRY"> F  </i>
  <i type="int" name="ICORELEVEL">     0</i>
  <i type="logical" name="LDAU"> F  </i>
  <i type="int" name="I_CONSTRAINED_M">     0</i>
  <separator name="electronic exchange-correlation" >
   <i type="string" name="GGA">PS</i>
   <i type="int" name="VOSKOWN">     0</i>
   <i type="logical" name="LHFCALC"> F  </i>
   <i type="string" name="PRECFOCK"></i>
   <i type="logical" name="LSYMGRAD"> F  </i>
   <i type="logical" name="LHFONE"> F  </i>
   <i type="logical" name="LRHFCALC"> F  </i>
   <i type="logical" name="LTHOMAS"> F  </i>
   <i type="logical" name="LMODELHF"> F  </i>
   <i type="logical" name="LFOCKACE"> F  </i>
   <i name="ENCUT4O">     -1.00000000</i>
   <i type="int" name="EXXOEP">     0</i>
   <i type="int" name="FOURORBIT">     0</i>
   <i name="AEXX">      0.00000000</i>
   <i name="HFALPHA">      0.00000000</i>
   <i name="MCALPHA">      0.00000000</i>
   <i name="ALDAX">      1.00000000</i>
   <i name="AGGAX">      1.00000000</i>
   <i name="ALDAC">      1.00000000</i>
   <i name="AGGAC">      1.00000000</i>
   <i type="int" name="NKREDX">     1</i>
   <i type="int" name="NKREDY">     1</i>
   <i type="int" name="NKREDZ">     1</i>
   <i type="logical" name="SHIFTRED"> F  </i>
   <i type="logical" name="ODDONLY"> F  </i>
   <i type="logical" name="EVENONLY"> F  </i>
   <i type="int" name="LMAXFOCK">     0</i>
   <i type="int" name="NMAXFOCKAE">     0</i>
   <i type="logical" name="LFOCKAEDFT"> F  </i>
   <i name="HFSCREEN">      0.00000000</i>
   <i name="HFSCREENC">      0.00000000</i>
   <i type="int" name="NBANDSGWLOW">     0</i>
  </separator>
  <separator name="vdW DFT" >
   <i type="logical" name="LUSE_VDW"> F  </i>
   <i name="Zab_VDW">     -0.84910000</i>
   <i name="PARAM1">      0.12340000</i>
   <i name="PARAM2">      1.00000000</i>
   <i name="PARAM3">      0.00000000</i>
  </separator>
  <separator name="model GW" >
   <i type="int" name="MODEL_GW">     0</i>
   <i name="MODEL_EPS0">      6.22874480</i>
   <i name="MODEL_ALPHA">      1.00000000</i>
  </separator>
  <separator name="linear response parameters" >
   <i type="logical" name="LEPSILON"> F  </i>
   <i type="logical" name="LRPA"> F  </i>
   <i type="logical" name="LNABLA"> F  </i>
   <i type="logical" name="LVEL"> F  </i>
   <i type="int" name="KINTER">     0</i>
   <i name="CSHIFT">      0.10000000</i>
   <i name="OMEGAMAX">     -1.00000000</i>
   <i name="DEG_THRESHOLD">      0.00200000</i>
   <i name="RTIME">     -0.10000000</i>
   <i name="WPLASMAI">      0.00000000</i>
   <v name="DFIELD">      0.00000000      0.00000000      0.00000000</v>
   <v name="WPLASMA">      0.00000000      0.00000000      0.00000000      0.00000000      0.00000000      0.00000000      0.00000000      0.00000000      0.00000000</v>
  </separator>
  <separator name="orbital magnetization" >
   <i type="logical" name="NUCIND"> F  </i>
   <v name="MAGPOS">      0.00000000      0.00000000      0.00000000</v>
   <i type="logical" name="LNICSALL"> T  </i>
   <i type="logical" name="ORBITALMAG"> F  </i>
   <i type="logical" name="LMAGBLOCH"> F  </i>
   <i type="logical" name="LCHIMAG"> F  </i>
   <i type="logical" name="LGAUGE"> T  </i>
   <i type="int" name="MAGATOM">     0</i>
   <v name="MAGDIPOL">      0.00000000      0.00000000      0.00000000</v>
   <v name="AVECCONST">      0.00000000      0.00000000      0.00000000</v>
  </separator>
  <separator name="response functions" >
   <i type="logical" name="LFINITE_TEMPERATURE"> F  </i>
   <i type="logical" name="LADDER"> F  </i>
   <i type="logical" name="LRPAFORCE"> F  </i>
   <i type="logical" name="LFXC"> F  </i>
   <i type="logical" name="LHARTREE"> T  </i>
   <i type="int" name="IBSE">     0</i>
   <v type="int" name="KPOINT">    -1     0     0     0</v>
   <i type="logical" name="LTCTC"> F  </i>
   <i type="logical" name="LTCTE"> F  </i>
   <i type="logical" name="LTETE"> F  </i>
   <i type="logical" name="LTRIPLET"> F  </i>
   <i type="logical" name="LFXCEPS"> F  </i>
   <i type="logical" name="LFXHEG"> F  </i>
   <i type="int" name="NATURALO">     2</i>
   <i type="logical" name="LHOLEGF"> F  </i>
   <i type="logical" name="L2ORDER"> F  </i>
   <i type="logical" name="LDMP1"> F  </i>
   <i type="logical" name="LMP2LT"> F  </i>
   <i type="logical" name="LSMP2LT"> F  </i>
   <i type="logical" name="LGWLF"> F  </i>
   <i name="ENCUTGW">     -2.00000000</i>
   <i name="ENCUTGWSOFT">     -2.00000000</i>
   <i name="ENCUTLF">     -1.00000000</i>
   <i type="logical" name="LESF_SPLINES"> F  </i>
   <i type="int" name="LMAXMP2">    -1</i>
   <i name="SCISSOR">      0.00000000</i>
   <i type="int" name="NOMEGA">     0</i>
   <i type="int" name="NOMEGAR">     0</i>
   <i type="int" name="NBANDSGW">    -1</i>
   <i type="int" name="NBANDSO">    -1</i>
   <i type="int" name="NBANDSV">    -1</i>
   <i type="int" name="NELM">     1</i>
   <i type="int" name="NELMHF">     1</i>
   <i type="int" name="DIM">     3</i>
   <i type="int" name="IESPILON">     4</i>
   <i type="int" name="ANTIRES">     0</i>
   <i name="OMEGAMAX">    -30.00000000</i>
   <i name="OMEGAMIN">    -30.00000000</i>
   <i name="OMEGATL">   -200.00000000</i>
   <i type="int" name="OMEGAGRID">     0</i>
   <i name="CSHIFT">     -0.10000000</i>
   <i type="logical" name="LSELFENERGY"> F  </i>
   <i type="logical" name="LSPECTRAL"> F  </i>
   <i type="logical" name="LSPECTRALGW"> F  </i>
   <i type="logical" name="LSINGLES"> F  </i>
   <i type="logical" name="LFERMIGW"> F  </i>
   <i type="logical" name="ODDONLYGW"> F  </i>
   <i type="logical" name="EVENONLYGW"> F  </i>
   <i type="int" name="NKREDLFX">     1</i>
   <i type="int" name="NKREDLFY">     1</i>
   <i type="int" name="NKREDLFZ">     1</i>
   <i type="int" name="MAXMEM">  2800</i>
   <i type="int" name="TELESCOPE">     0</i>
   <i type="int" name="NTAUPAR">    -1</i>
   <i type="int" name="NOMEGAPAR">    -1</i>
   <i name="DAMP_NEWTON">      0.80000001</i>
   <i name="LAMBDA">      1.00000000</i>
  </separator>
  <separator name="External order field" >
   <i name="OFIELD_KAPPA">      0.00000000</i>
   <v name="OFIELD_K">      0.00000000      0.00000000      0.00000000</v>
   <i name="OFIELD_Q6_NEAR">      0.00000000</i>
   <i name="OFIELD_Q6_FAR">      0.00000000</i>
   <i name="OFIELD_A">      0.00000000</i>
  </separator>
 </parameters>
 <atominfo>
  <atoms>       6 </atoms>
  <types>       2 </types>
  <array name="atoms" >
   <dimension dim="1">ion</dimension>
   <field type="string">element</field>
   <field type="int">atomtype</field>
   <set>
    <rc><c>Ti</c><c>   1</c></rc>
    <rc><c>Ti</c><c>   1</c></rc>
    <rc><c>O </c><c>   2</c></rc>
    <rc><c>O </c><c>   2</c></rc>
    <rc><c>O </c><c>   2</c></rc>
    <rc><c>O </c><c>   2</c></rc>
   </set>
  </array>
  <array name="atomtypes" >
   <dimension dim="1">type</dimension>
   <field type="int">atomspertype</field>
   <field type="string">element</field>
   <field>mass</field>
   <field>valence</field>
   <field type="string">pseudopotential</field>
   <set>
    <rc><c>   2</c><c>Ti</c><c>     47.88000000</c><c>     10.00000000</c><c>  PAW_PBE Ti_pv 07Sep2000               </c></rc>
    <rc><c>   4</c><c>O </c><c>     16.00000000</c><c>      6.00000000</c><c>  PAW_PBE O 08Apr2002                   </c></rc>
   </set>
  </array>
 </atominfo>
 <structure name="initialpos" >
  <crystal>
   <varray name="basis" >
    <v>       4.60094756      -0.00000000       0.00000000 </v>
    <v>       0.00000000       4.60094756       0.00000000 </v>
    <v>      -0.00000000      -0.00000000       2.94242885 </v>
   </varray>
   <i name="volume">     62.28744797 </i>
   <varray name="rec_basis" >
    <v>       0.21734653      -0.00000000       0.00000000 </v>
    <v>       0.00000000       0.21734653       0.00000000 </v>
    <v>      -0.00000000      -0.00000000       0.33985529 </v>
   </varray>
  </crystal>
  <varray name="positions" >
   <v>       0.50000000       0.50000000       0.50000000 </v>
   <v>       0.00000000       0.00000000       0.00000000 </v>
   <v>       0.19567008       0.80432992       0.50000000 </v>
   <v>       0.80432992       0.19567008       0.50000000 </v>
   <v>       0.30432992       0.30432992       0.00000000 </v>
   <v>       0.69567008       0.69567008       0.00000000 </v>
  </varray>
 </structure>
 <calculation>
  <scstep>
   <time name="total">    0.77    0.91</time>
   <energy>
    <i name="alphaZ">    219.50783828 </i>
    <i name="ewald">  -2936.72308892 </i>
    <i name="hartreedc">   -880.18918240 </i>
    <i name="XCdc">    185.56750189 </i>
    <i name="pawpsdc">   3021.72754560 </i>
    <i name="pawaedc">  -3026.49704978 </i>
    <i name="eentropy">      0.00000000 </i>
    <i name="bandstr">    228.33126500 </i>
    <i name="atom">   3805.83765485 </i>
    <i name="e_fr_energy">    617.56248453 </i>
    <i name="e_wo_entrp">    617.56248453 </i>
    <i name="e_0_energy">    617.56248453 </i>
   </energy>
  </scstep>
  <scstep>
   <time name="total">    1.21    1.22</time>
   <energy>
    <i name="e_fr_energy">     41.06787624 </i>
    <i name="e_wo_entrp">     41.06787624 </i>
    <i name="e_0_energy">     41.06787624 </i>
   </energy>
  </scstep>
  <scstep>
   <time name="total">    1.01    1.02</time>
   <energy>
    <i name="e_fr_energy">    -56.68536268 </i>
    <i name="e_wo_entrp">    -56.68536268 </i>
    <i name="e_0_energy">    -56.68536268 </i>
   </energy>
  </scstep>
  <scstep>
   <time name="total">    1.05    1.05</time>
   <energy>
    <i name="e_fr_energy">    -70.54988023 </i>
    <i name="e_wo_entrp">    -70.54988023 </i>
    <i name="e_0_energy">    -70.54988023 </i>
   </energy>
  </scstep>
  <scstep>
   <time name="total">    1.13    1.16</time>
   <energy>
    <i name="e_fr_energy">    -72.35366221 </i>
    <i name="e_wo_entrp">    -72.35366221 </i>
    <i name="e_0_energy">    -72.35366221 </i>
   </energy>
  </scstep>
  <scstep>
   <time name="total">    1.36    1.38</time>
   <energy>
    <i name="e_fr_energy">    -22.43107914 </i>
    <i name="e_wo_entrp">    -22.43107914 </i>
    <i name="e_0_energy">    -22.43107914 </i>
   </energy>
  </scstep>
  <scstep>
   <time name="total">    1.56    1.58</time>
   <energy>
    <i name="e_fr_energy">    -46.04953189 </i>
    <i name="e_wo_entrp">    -46.04953189 </i>
    <i name="e_0_energy">    -46.04953189 </i>
   </energy>
  </scstep>
  <scstep>
   <time name="total">    1.34    1.36</time>
   <energy>
    <i name="e_fr_energy">    -47.44457544 </i>
    <i name="e_wo_entrp">    -47.44457544 </i>
    <i name="e_0_energy">    -47.44457544 </i>
   </energy>
  </scstep>
  <scstep>
   <time name="total">    1.55    1.57</time>
   <energy>
    <i name="e_fr_energy">    -54.27680486 </i>
    <i name="e_wo_entrp">    -54.27680486 </i>
    <i name="e_0_energy">    -54.27680486 </i>
   </energy>
  </scstep>
  <scstep>
   <time name="total">    1.35    1.37</time>
   <energy>
    <i name="e_fr_energy">    -54.78984854 </i>
    <i name="e_wo_entrp">    -54.78984854 </i>
    <i name="e_0_energy">    -54.78984854 </i>
   </energy>
  </scstep>
  <scstep>
   <time name="total">    1.56    1.58</time>
   <energy>
    <i name="e_fr_energy">    -55.62172508 </i>
    <i name="e_wo_entrp">    -55.62172508 </i>
    <i name="e_0_energy">    -55.62172508 </i>
   </energy>
  </scstep>
  <scstep>
   <time name="total">    1.56    1.58</time>
   <energy>
    <i name="e_fr_energy">    -55.72303105 </i>
    <i name="e_wo_entrp">    -55.72303105 </i>
    <i name="e_0_energy">    -55.72303105 </i>
   </energy>
  </scstep>
  <scstep>
   <time name="total">    1.35    1.36</time>
   <energy>
    <i name="e_fr_energy">    -55.84959763 </i>
    <i name="e_wo_entrp">    -55.84959763 </i>
    <i name="e_0_energy">    -55.84959763 </i>
   </energy>
  </scstep>
  <scstep>
   <time name="total">    1.35    1.36</time>
   <energy>
    <i name="e_fr_energy">    -55.85994377 </i>
    <i name="e_wo_entrp">    -55.85994377 </i>
    <i name="e_0_energy">    -55.85994377 </i>
   </energy>
  </scstep>
  <scstep>
   <time name="total">    1.35    1.37</time>
   <energy>
    <i name="e_fr_energy">    -55.87931278 </i>
    <i name="e_wo_entrp">    -55.87931278 </i>
    <i name="e_0_energy">    -55.87931278 </i>
   </energy>
  </scstep>
  <scstep>
   <time name="total">    1.35    1.36</time>
   <energy>
    <i name="e_fr_energy">    -55.87965528 </i>
    <i name="e_wo_entrp">    -55.87965528 </i>
    <i name="e_0_energy">    -55.87965528 </i>
   </energy>
  </scstep>
  <scstep>
   <time name="total">    1.34    1.36</time>
   <energy>
    <i name="e_fr_energy">    -55.88337729 </i>
    <i name="e_wo_entrp">    -55.88337729 </i>
    <i name="e_0_energy">    -55.88337729 </i>
   </energy>
  </scstep>
  <scstep>
   <time name="total">    1.36    1.38</time>
   <energy>
    <i name="e_fr_energy">    -55.88318175 </i>
    <i name="e_wo_entrp">    -55.88318175 </i>
    <i name="e_0_energy">    -55.88318175 </i>
   </energy>
  </scstep>
  <scstep>
   <time name="total">    1.34    1.36</time>
   <energy>
    <i name="e_fr_energy">    -55.88377351 </i>
    <i name="e_wo_entrp">    -55.88377351 </i>
    <i name="e_0_energy">    -55.88377351 </i>
   </energy>
  </scstep>
  <scstep>
   <time name="total">    1.14    1.16</time>
   <energy>
    <i name="e_fr_energy">    -55.88376243 </i>
    <i name="e_wo_entrp">    -55.88376243 </i>
    <i name="e_0_energy">    -55.88376243 </i>
   </energy>
  </scstep>
  <scstep>
   <time name="total">    1.14    1.15</time>
   <energy>
    <i name="e_fr_energy">    -55.88382464 </i>
    <i name="e_wo_entrp">    -55.88382464 </i>
    <i name="e_0_energy">    -55.88382464 </i>
   </energy>
  </scstep>
  <scstep>
   <time name="total">    1.14    1.16</time>
   <energy>
    <i name="e_fr_energy">    -55.88383622 </i>
    <i name="e_wo_entrp">    -55.88383622 </i>
    <i name="e_0_energy">    -55.88383622 </i>
   </energy>
  </scstep>
  <scstep>
   <time name="total">    1.07    1.08</time>
   <energy>
    <i name="alphaZ">    219.50783828 </i>
    <i name="ewald">  -2936.72308892 </i>
    <i name="hartreedc">   -862.49844934 </i>
    <i name="XCdc">    186.29646200 </i>
    <i name="pawpsdc">   4938.20902338 </i>
    <i name="pawaedc">  -4954.13979190 </i>
    <i name="eentropy">      0.00000000 </i>
    <i name="bandstr">   -452.37348963 </i>
    <i name="atom">   3805.83765485 </i>
    <i name="e_fr_energy">    -55.88384127 </i>
    <i name="e_wo_entrp">    -55.88384127 </i>
    <i name="e_0_energy">    -55.88384127 </i>
   </energy>
  </scstep>
  <structure>
   <crystal>
    <varray name="basis" >
     <v>       4.60094756      -0.00000000       0.00000000 </v>
     <v>       0.00000000       4.60094756       0.00000000 </v>
     <v>      -0.00000000      -0.00000000       2.94242885 </v>
    </varray>
    <i name="volume">     62.28744797 </i>
    <varray name="rec_basis" >
     <v>       0.21734653      -0.00000000       0.00000000 </v>
     <v>       0.00000000       0.21734653       0.00000000 </v>
     <v>      -0.00000000      -0.00000000       0.33985529 </v>
    </varray>
   </crystal>
   <varray name="positions" >
    <v>       0.50000000       0.50000000       0.50000000 </v>
    <v>       0.00000000       0.00000000       0.00000000 </v>
    <v>       0.19567008       0.80432992       0.50000000 </v>
    <v>       0.80432992       0.19567008       0.50000000 </v>
    <v>       0.30432992       0.30432992       0.00000000 </v>
    <v>       0.69567008       0.69567008       0.00000000 </v>
   </varray>
  </structure>
  <varray name="forces" >
   <v>       0.00000000      -0.00000000       0.00000000 </v>
   <v>      -0.00000000      -0.00000000       0.00000000 </v>
   <v>       0.00682542      -0.00682542       0.00000000 </v>
   <v>      -0.00682542       0.00682542      -0.00000000 </v>
   <v>      -0.00682542      -0.00682542      -0.00000000 </v>
   <v>       0.00682542       0.00682542       0.00000000 </v>
  </varray>
  <varray name="stress" >
   <v>      -2.22749100      -0.00000000       0.00000000 </v>
   <v>      -0.00000000      -2.22749100       0.00000000 </v>
   <v>       0.00000000       0.00000000       0.64973455 </v>
  </varray>
  <energy>
   <i name="e_fr_energy">    -55.88384127 </i>
   <i name="e_wo_entrp">    -55.88384127 </i>
   <i name="e_0_energy">    -55.88384127 </i>
  </energy>
  <time name="totalsc">   30.30   30.94</time>
  <eigenvalues>
   <array>
    <dimension dim="1">band</dimension>
    <dimension dim="2">kpoint</dimension>
    <dimension dim="3">spin</dimension>
    <field>eigene</field>
    <field>occ</field>
    <set>
     <set comment="spin 1">
      <set comment="kpoint 1">
       <r>  -29.7206    1.0000 </r>
       <r>  -29.7206    1.0000 </r>
       <r>  -29.5519    1.0000 </r>
       <r>  -29.5519    1.0000 </r>
       <r>  -29.5117    1.0000 </r>
       <r>  -29.4778    1.0000 </r>
       <r>  -14.7924    1.0000 </r>
       <r>  -13.5687    1.0000 </r>
       <r>  -12.8038    1.0000 </r>
       <r>  -12.8038    1.0000 </r>
       <r>   -2.4644    1.0000 </r>
       <r>   -2.0130    1.0000 </r>
       <r>   -1.6254    1.0000 </r>
       <r>   -0.4336    1.0000 </r>
       <r>   -0.4336    1.0000 </r>
       <r>    0.7911    1.0000 </r>
       <r>    0.7911    1.0000 </r>
       <r>    1.4438    1.0000 </r>
       <r>    2.7329    1.0000 </r>
       <r>    2.9586    1.0000 </r>
       <r>    2.9586    1.0000 </r>
       <r>    3.3905    1.0000 </r>
       <r>    5.1873    0.0000 </r>
       <r>    5.4616    0.0000 </r>
       <r>    5.7627    0.0000 </r>
       <r>    5.8559    0.0000 </r>
       <r>    5.8559    0.0000 </r>
       <r>    7.7917    0.0000 </r>
       <r>    7.9717    0.0000 </r>
       <r>   10.0356    0.0000 </r>
       <r>   10.3818    0.0000 </r>
       <r>   11.0964    0.0000 </r>
      </set>
      <set comment="kpoint 2">
       <r>  -29.7116    1.0000 </r>
       <r>  -29.7107    1.0000 </r>
       <r>  -29.5629    1.0000 </r>
       <r>  -29.5620    1.0000 </r>
       <r>  -29.5095    1.0000 </r>
       <r>  -29.4801    1.0000 </r>
       <r>  -14.6911    1.0000 </r>
       <r>  -13.5762    1.0000 </r>
       <r>  -12.9034    1.0000 </r>
       <r>  -12.8427    1.0000 </r>
       <r>   -2.2827    1.0000 </r>
       <r>   -1.9032    1.0000 </r>
       <r>   -1.4412    1.0000 </r>
       <r>   -0.4222    1.0000 </r>
       <r>   -0.4141    1.0000 </r>
       <r>    0.6197    1.0000 </r>
       <r>    0.7472    1.0000 </r>
       <r>    1.4561    1.0000 </r>
       <r>    2.4469    1.0000 </r>
       <r>    2.5508    1.0000 </r>
       <r>    2.7301    1.0000 </r>
       <r>    3.2937    1.0000 </r>
       <r>    5.3438    0.0000 </r>
       <r>    5.6622    0.0000 </r>
       <r>    5.9673    0.0000 </r>
       <r>    5.9688    0.0000 </r>
       <r>    6.0133    0.0000 </r>
       <r>    7.8233    0.0000 </r>
       <r>    8.0102    0.0000 </r>
       <r>    9.9592    0.0000 </r>
       <r>   10.2206    0.0000 </r>
       <r>   11.4241    0.0000 </r>
      </set>
      <set comment="kpoint 3">
       <r>  -29.6876    1.0000 </r>
       <r>  -29.6853    1.0000 </r>
       <r>  -29.5906    1.0000 </r>
       <r>  -29.5882    1.0000 </r>
       <r>  -29.5032    1.0000 </r>
       <r>  -29.4863    1.0000 </r>
       <r>  -14.4101    1.0000 </r>
       <r>  -13.6882    1.0000 </r>
       <r>  -13.0591    1.0000 </r>
       <r>  -12.9404    1.0000 </r>
       <r>   -1.8918    1.0000 </r>
       <r>   -1.6640    1.0000 </r>
       <r>   -0.8439    1.0000 </r>
       <r>   -0.3945    1.0000 </r>
       <r>   -0.3796    1.0000 </r>
       <r>    0.2911    1.0000 </r>
       <r>    0.5326    1.0000 </r>
       <r>    1.3626    1.0000 </r>
       <r>    1.5413    1.0000 </r>
       <r>    2.1559    1.0000 </r>
       <r>    2.5018    1.0000 </r>
       <r>    2.9899    1.0000 </r>
       <r>    5.6427    0.0000 </r>
       <r>    5.8879    0.0000 </r>
       <r>    6.2165    0.0000 </r>
       <r>    6.2933    0.0000 </r>
       <r>    6.4210    0.0000 </r>
       <r>    7.4470    0.0000 </r>
       <r>    8.6393    0.0000 </r>
       <r>    9.7559    0.0000 </r>
       <r>    9.7936    0.0000 </r>
       <r>   10.3332    0.0000 </r>
      </set>
      <set comment="kpoint 4">
       <r>  -29.6663    1.0000 </r>
       <r>  -29.6663    1.0000 </r>
       <r>  -29.6107    1.0000 </r>
       <r>  -29.6107    1.0000 </r>
       <r>  -29.4947    1.0000 </r>
       <r>  -29.4947    1.0000 </r>
       <r>  -14.0236    1.0000 </r>
       <r>  -14.0236    1.0000 </r>
       <r>  -13.0462    1.0000 </r>
       <r>  -13.0462    1.0000 </r>
       <r>   -1.6012    1.0000 </r>
       <r>   -1.6012    1.0000 </r>
       <r>   -0.3715    1.0000 </r>
       <r>   -0.3715    1.0000 </r>
       <r>    0.0881    1.0000 </r>
       <r>    0.0881    1.0000 </r>
       <r>    0.3088    1.0000 </r>
       <r>    0.3088    1.0000 </r>
       <r>    1.7770    1.0000 </r>
       <r>    1.7770    1.0000 </r>
       <r>    2.6444    1.0000 </r>
       <r>    2.6444    1.0000 </r>
       <r>    5.8659    0.0000 </r>
       <r>    5.8659    0.0000 </r>
       <r>    6.3882    0.0000 </r>
       <r>    6.3882    0.0000 </r>
       <r>    6.9462    0.0000 </r>
       <r>    6.9462    0.0000 </r>
       <r>    9.4969    0.0000 </r>
       <r>    9.4969    0.0000 </r>
       <r>    9.6788    0.0000 </r>
       <r>    9.6788    0.0000 </r>
      </set>
      <set comment="kpoint 5">
       <r>  -29.7238    1.0000 </r>
       <r>  -29.6839    1.0000 </r>
       <r>  -29.5913    1.0000 </r>
       <r>  -29.5499    1.0000 </r>
       <r>  -29.5075    1.0000 </r>
       <r>  -29.4820    1.0000 </r>
       <r>  -14.6055    1.0000 </r>
       <r>  -13.5972    1.0000 </r>
       <r>  -12.9989    1.0000 </r>
       <r>  -12.8387    1.0000 </r>
       <r>   -2.2765    1.0000 </r>
       <r>   -1.6978    1.0000 </r>
       <r>   -1.2795    1.0000 </r>
       <r>   -0.4513    1.0000 </r>
       <r>   -0.3767    1.0000 </r>
       <r>    0.4035    1.0000 </r>
       <r>    0.8432    1.0000 </r>
       <r>    1.4821    1.0000 </r>
       <r>    2.1022    1.0000 </r>
       <r>    2.4544    1.0000 </r>
       <r>    2.5904    1.0000 </r>
       <r>    3.2245    1.0000 </r>
       <r>    5.2604    0.0000 </r>
       <r>    5.8317    0.0000 </r>
       <r>    5.8610    0.0000 </r>
       <r>    6.1619    0.0000 </r>
       <r>    6.2570    0.0000 </r>
       <r>    7.7295    0.0000 </r>
       <r>    8.1596    0.0000 </r>
       <r>    9.8020    0.0000 </r>
       <r>   10.1056    0.0000 </r>
       <r>   11.2204    0.0000 </r>
      </set>
      <set comment="kpoint 6">
       <r>  -29.7165    1.0000 </r>
       <r>  -29.6666    1.0000 </r>
       <r>  -29.6104    1.0000 </r>
       <r>  -29.5589    1.0000 </r>
       <r>  -29.5021    1.0000 </r>
       <r>  -29.4874    1.0000 </r>
       <r>  -14.3692    1.0000 </r>
       <r>  -13.7404    1.0000 </r>
       <r>  -13.0762    1.0000 </r>
       <r>  -12.9099    1.0000 </r>
       <r>   -2.1058    1.0000 </r>
       <r>   -1.5443    1.0000 </r>
       <r>   -0.7571    1.0000 </r>
       <r>   -0.4461    1.0000 </r>
       <r>   -0.3710    1.0000 </r>
       <r>    0.3001    1.0000 </r>
       <r>    0.6987    1.0000 </r>
       <r>    1.4992    1.0000 </r>
       <r>    1.6049    1.0000 </r>
       <r>    2.1895    1.0000 </r>
       <r>    2.2857    1.0000 </r>
       <r>    2.8975    1.0000 </r>
       <r>    5.4380    0.0000 </r>
       <r>    5.9025    0.0000 </r>
       <r>    5.9942    0.0000 </r>
       <r>    6.3933    0.0000 </r>
       <r>    6.5719    0.0000 </r>
       <r>    7.4398    0.0000 </r>
       <r>    8.6772    0.0000 </r>
       <r>    9.6827    0.0000 </r>
       <r>   10.0274    0.0000 </r>
       <r>   10.4587    0.0000 </r>
      </set>
      <set comment="kpoint 7">
       <r>  -29.6917    1.0000 </r>
       <r>  -29.6917    1.0000 </r>
       <r>  -29.5854    1.0000 </r>
       <r>  -29.5854    1.0000 </r>
       <r>  -29.4947    1.0000 </r>
       <r>  -29.4947    1.0000 </r>
       <r>  -14.0434    1.0000 </r>
       <r>  -14.0434    1.0000 </r>
       <r>  -13.0182    1.0000 </r>
       <r>  -13.0182    1.0000 </r>
       <r>   -1.7810    1.0000 </r>
       <r>   -1.7810    1.0000 </r>
       <r>   -0.4072    1.0000 </r>
       <r>   -0.4072    1.0000 </r>
       <r>   -0.0208    1.0000 </r>
       <r>   -0.0208    1.0000 </r>
       <r>    0.8250    1.0000 </r>
       <r>    0.8250    1.0000 </r>
       <r>    1.8622    1.0000 </r>
       <r>    1.8622    1.0000 </r>
       <r>    2.4553    1.0000 </r>
       <r>    2.4553    1.0000 </r>
       <r>    5.7390    0.0000 </r>
       <r>    5.7390    0.0000 </r>
       <r>    6.2575    0.0000 </r>
       <r>    6.2575    0.0000 </r>
       <r>    7.0268    0.0000 </r>
       <r>    7.0268    0.0000 </r>
       <r>    9.4079    0.0000 </r>
       <r>    9.4079    0.0000 </r>
       <r>    9.7722    0.0000 </r>
       <r>    9.7722    0.0000 </r>
      </set>
      <set comment="kpoint 8">
       <r>  -29.7302    1.0000 </r>
       <r>  -29.6943    1.0000 </r>
       <r>  -29.5834    1.0000 </r>
       <r>  -29.5459    1.0000 </r>
       <r>  -29.4989    1.0000 </r>
       <r>  -29.4904    1.0000 </r>
       <r>  -14.2527    1.0000 </r>
       <r>  -13.8889    1.0000 </r>
       <r>  -13.0437    1.0000 </r>
       <r>  -12.9064    1.0000 </r>
       <r>   -2.2247    1.0000 </r>
       <r>   -1.7597    1.0000 </r>
       <r>   -0.4865    1.0000 </r>
       <r>   -0.4170    1.0000 </r>
       <r>   -0.3790    1.0000 </r>
       <r>    0.5053    1.0000 </r>
       <r>    1.0043    1.0000 </r>
       <r>    1.5658    1.0000 </r>
       <r>    1.7942    1.0000 </r>
       <r>    1.8596    1.0000 </r>
       <r>    2.1874    1.0000 </r>
       <r>    2.7046    1.0000 </r>
       <r>    5.2419    0.0000 </r>
       <r>    5.7408    0.0000 </r>
       <r>    5.8721    0.0000 </r>
       <r>    6.2617    0.0000 </r>
       <r>    6.8811    0.0000 </r>
       <r>    7.3609    0.0000 </r>
       <r>    8.8719    0.0000 </r>
       <r>    9.7303    0.0000 </r>
       <r>    9.7702    0.0000 </r>
       <r>   10.0273    0.0000 </r>
      </set>
      <set comment="kpoint 9">
       <r>  -29.7219    1.0000 </r>
       <r>  -29.7219    1.0000 </r>
       <r>  -29.5554    1.0000 </r>
       <r>  -29.5554    1.0000 </r>
       <r>  -29.4947    1.0000 </r>
       <r>  -29.4947    1.0000 </r>
       <r>  -14.0800    1.0000 </r>
       <r>  -14.0800    1.0000 </r>
       <r>  -12.9647    1.0000 </r>
       <r>  -12.9647    1.0000 </r>
       <r>   -2.0868    1.0000 </r>
       <r>   -2.0868    1.0000 </r>
       <r>   -0.4733    1.0000 </r>
       <r>   -0.4733    1.0000 </r>
       <r>    0.2150    1.0000 </r>
       <r>    0.2150    1.0000 </r>
       <r>    1.2848    1.0000 </r>
       <r>    1.2848    1.0000 </r>
       <r>    2.0348    1.0000 </r>
       <r>    2.0348    1.0000 </r>
       <r>    2.2118    1.0000 </r>
       <r>    2.2118    1.0000 </r>
       <r>    5.4237    0.0000 </r>
       <r>    5.4237    0.0000 </r>
       <r>    6.0034    0.0000 </r>
       <r>    6.0034    0.0000 </r>
       <r>    7.1667    0.0000 </r>
       <r>    7.1667    0.0000 </r>
       <r>    9.2617    0.0000 </r>
       <r>    9.2617    0.0000 </r>
       <r>    9.9445    0.0000 </r>
       <r>    9.9445    0.0000 </r>
      </set>
      <set comment="kpoint 10">
       <r>  -29.7334    1.0000 </r>
       <r>  -29.7334    1.0000 </r>
       <r>  -29.5439    1.0000 </r>
       <r>  -29.5439    1.0000 </r>
       <r>  -29.4947    1.0000 </r>
       <r>  -29.4947    1.0000 </r>
       <r>  -14.0972    1.0000 </r>
       <r>  -14.0972    1.0000 </r>
       <r>  -12.9388    1.0000 </r>
       <r>  -12.9388    1.0000 </r>
       <r>   -2.2191    1.0000 </r>
       <r>   -2.2191    1.0000 </r>
       <r>   -0.5041    1.0000 </r>
       <r>   -0.5041    1.0000 </r>
       <r>    0.4927    1.0000 </r>
       <r>    0.4927    1.0000 </r>
       <r>    1.1488    1.0000 </r>
       <r>    1.1488    1.0000 </r>
       <r>    2.1233    1.0000 </r>
       <r>    2.1233    1.0000 </r>
       <r>    2.3238    1.0000 </r>
       <r>    2.3238    1.0000 </r>
       <r>    5.2205    0.0000 </r>
       <r>    5.2205    0.0000 </r>
       <r>    5.8780    0.0000 </r>
       <r>    5.8780    0.0000 </r>
       <r>    7.2262    0.0000 </r>
       <r>    7.2262    0.0000 </r>
       <r>    9.2040    0.0000 </r>
       <r>    9.2040    0.0000 </r>
       <r>   10.0247    0.0000 </r>
       <r>   10.0247    0.0000 </r>
      </set>
      <set comment="kpoint 11">
       <r>  -29.7062    1.0000 </r>
       <r>  -29.7062    1.0000 </r>
       <r>  -29.5681    1.0000 </r>
       <r>  -29.5491    1.0000 </r>
       <r>  -29.5491    1.0000 </r>
       <r>  -29.5372    1.0000 </r>
       <r>  -14.6558    1.0000 </r>
       <r>  -13.4902    1.0000 </r>
       <r>  -12.8676    1.0000 </r>
       <r>  -12.8676    1.0000 </r>
       <r>   -2.2790    1.0000 </r>
       <r>   -1.8723    1.0000 </r>
       <r>   -1.4802    1.0000 </r>
       <r>   -0.5959    1.0000 </r>
       <r>   -0.5959    1.0000 </r>
       <r>    1.0531    1.0000 </r>
       <r>    1.0628    1.0000 </r>
       <r>    1.0628    1.0000 </r>
       <r>    2.1974    1.0000 </r>
       <r>    2.7016    1.0000 </r>
       <r>    2.7016    1.0000 </r>
       <r>    3.3357    1.0000 </r>
       <r>    5.5083   -0.0000 </r>
       <r>    5.5936    0.0000 </r>
       <r>    5.6743    0.0000 </r>
       <r>    6.0193    0.0000 </r>
       <r>    6.0193    0.0000 </r>
       <r>    7.8713    0.0000 </r>
       <r>    7.9813    0.0000 </r>
       <r>    9.8441    0.0000 </r>
       <r>    9.9070    0.0000 </r>
       <r>   11.3683    0.0000 </r>
      </set>
      <set comment="kpoint 12">
       <r>  -29.6984    1.0000 </r>
       <r>  -29.6968    1.0000 </r>
       <r>  -29.5698    1.0000 </r>
       <r>  -29.5653    1.0000 </r>
       <r>  -29.5542    1.0000 </r>
       <r>  -29.5334    1.0000 </r>
       <r>  -14.5596    1.0000 </r>
       <r>  -13.4914    1.0000 </r>
       <r>  -12.9649    1.0000 </r>
       <r>  -12.9024    1.0000 </r>
       <r>   -2.1100    1.0000 </r>
       <r>   -1.7587    1.0000 </r>
       <r>   -1.3374    1.0000 </r>
       <r>   -0.6055    1.0000 </r>
       <r>   -0.5158    1.0000 </r>
       <r>    0.8377    1.0000 </r>
       <r>    0.8747    1.0000 </r>
       <r>    1.2095    1.0000 </r>
       <r>    1.9031    1.0000 </r>
       <r>    2.4974    1.0000 </r>
       <r>    2.5478    1.0000 </r>
       <r>    3.2195    1.0000 </r>
       <r>    5.6222   -0.0000 </r>
       <r>    5.7976    0.0000 </r>
       <r>    5.8050    0.0000 </r>
       <r>    6.0682    0.0000 </r>
       <r>    6.2010    0.0000 </r>
       <r>    7.7350    0.0000 </r>
       <r>    8.1733    0.0000 </r>
       <r>    9.7363    0.0000 </r>
       <r>   10.0635    0.0000 </r>
       <r>   11.4646    0.0000 </r>
      </set>
      <set comment="kpoint 13">
       <r>  -29.6768    1.0000 </r>
       <r>  -29.6723    1.0000 </r>
       <r>  -29.5954    1.0000 </r>
       <r>  -29.5898    1.0000 </r>
       <r>  -29.5520    1.0000 </r>
       <r>  -29.5355    1.0000 </r>
       <r>  -14.2922    1.0000 </r>
       <r>  -13.5916    1.0000 </r>
       <r>  -13.1157    1.0000 </r>
       <r>  -12.9917    1.0000 </r>
       <r>   -1.7338    1.0000 </r>
[...]
        <r>  0.0053  0.0170  0.0122  0.0211  0.0000  0.0000  0.0000  0.0000  0.0000 </r>
        <r>  0.0047  0.0296  0.0104  0.0234  0.0000  0.0000  0.0000  0.0000  0.0000 </r>
        <r>  0.0060  0.0311  0.0053  0.0281  0.0000  0.0000  0.0000  0.0000  0.0000 </r>
       </set>
      </set>
      <set comment="kpoint 50">
       <set comment="band 1">
        <r>  0.0000  0.0000  0.0021  0.0000  0.0000  0.0000  0.0000  0.0000  0.0000 </r>
        <r>  0.0000  0.0000  0.9637  0.0000  0.0000  0.0000  0.0000  0.0000  0.0000 </r>
        <r>  0.0067  0.0011  0.0000  0.0011  0.0000  0.0000  0.0000  0.0000  0.0000 </r>
        <r>  0.0067  0.0011  0.0000  0.0011  0.0000  0.0000  0.0000  0.0000  0.0000 </r>
        <r>  0.0000  0.0000  0.0000  0.0000  0.0000  0.0000  0.0000  0.0000  0.0000 </r>
        <r>  0.0000  0.0000  0.0000  0.0000  0.0000  0.0000  0.0000  0.0000  0.0000 </r>
       </set>
       <set comment="band 2">
        <r>  0.0000  0.0000  0.9637  0.0000  0.0000  0.0000  0.0000  0.0000  0.0000 </r>
        <r>  0.0000  0.0000  0.0021  0.0000  0.0000  0.0000  0.0000  0.0000  0.0000 </r>
        <r>  0.0000  0.0000  0.0000  0.0000  0.0000  0.0000  0.0000  0.0000  0.0000 </r>
        <r>  0.0000  0.0000  0.0000  0.0000  0.0000  0.0000  0.0000  0.0000  0.0000 </r>
        <r>  0.0067  0.0011  0.0000  0.0011  0.0000  0.0000  0.0000  0.0000  0.0000 </r>
        <r>  0.0067  0.0011  0.0000  0.0011  0.0000  0.0000  0.0000  0.0000  0.0000 </r>
       </set>
       <set comment="band 3">
        <r>  0.0000  0.2114  0.0000  0.1382  0.0000  0.0000  0.0000  0.0000  0.0000 </r>
        <r>  0.0000  0.2792  0.0000  0.3525  0.0000  0.0000  0.0000  0.0000  0.0000 </r>
        <r>  0.0005  0.0001  0.0001  0.0001  0.0000  0.0000  0.0000  0.0000  0.0000 </r>
        <r>  0.0005  0.0001  0.0001  0.0001  0.0000  0.0000  0.0000  0.0000  0.0000 </r>
        <r>  0.0019  0.0003  0.0004  0.0003  0.0000  0.0000  0.0000  0.0000  0.0000 </r>
        <r>  0.0019  0.0003  0.0004  0.0003  0.0000  0.0000  0.0000  0.0000  0.0000 </r>
       </set>
       <set comment="band 4">
        <r>  0.0000  0.2792  0.0000  0.3525  0.0000  0.0000  0.0000  0.0000  0.0000 </r>
        <r>  0.0000  0.2114  0.0000  0.1382  0.0000  0.0000  0.0000  0.0000  0.0000 </r>
        <r>  0.0019  0.0003  0.0004  0.0003  0.0000  0.0000  0.0000  0.0000  0.0000 </r>
        <r>  0.0019  0.0003  0.0004  0.0003  0.0000  0.0000  0.0000  0.0000  0.0000 </r>
        <r>  0.0005  0.0001  0.0001  0.0001  0.0000  0.0000  0.0000  0.0000  0.0000 </r>
        <r>  0.0005  0.0001  0.0001  0.0001  0.0000  0.0000  0.0000  0.0000  0.0000 </r>
       </set>
       <set comment="band 5">
        <r>  0.0000  0.4919  0.0000  0.1401  0.0000  0.0000  0.0000  0.0000  0.0000 </r>
        <r>  0.0000  0.0010  0.0000  0.3528  0.0000  0.0000  0.0000  0.0000  0.0000 </r>
        <r>  0.0000  0.0000  0.0003  0.0001  0.0000  0.0000  0.0000  0.0000  0.0000 </r>
        <r>  0.0000  0.0000  0.0003  0.0001  0.0000  0.0000  0.0000  0.0000  0.0000 </r>
        <r>  0.0001  0.0002  0.0012  0.0002  0.0000  0.0000  0.0000  0.0000  0.0000 </r>
        <r>  0.0001  0.0002  0.0012  0.0002  0.0000  0.0000  0.0000  0.0000  0.0000 </r>
       </set>
       <set comment="band 6">
        <r>  0.0000  0.0010  0.0000  0.3528  0.0000  0.0000  0.0000  0.0000  0.0000 </r>
        <r>  0.0000  0.4919  0.0000  0.1401  0.0000  0.0000  0.0000  0.0000  0.0000 </r>
        <r>  0.0001  0.0002  0.0012  0.0002  0.0000  0.0000  0.0000  0.0000  0.0000 </r>
        <r>  0.0001  0.0002  0.0012  0.0002  0.0000  0.0000  0.0000  0.0000  0.0000 </r>
        <r>  0.0000  0.0000  0.0003  0.0001  0.0000  0.0000  0.0000  0.0000  0.0000 </r>
        <r>  0.0000  0.0000  0.0003  0.0001  0.0000  0.0000  0.0000  0.0000  0.0000 </r>
       </set>
       <set comment="band 7">
        <r>  0.0000  0.0050  0.0000  0.0007  0.0000  0.0318  0.0000  0.0315  0.0000 </r>
        <r>  0.0000  0.0062  0.0000  0.0104  0.0000  0.0088  0.0000  0.0092  0.0000 </r>
        <r>  0.0857  0.0001  0.0000  0.0000  0.0000  0.0000  0.0000  0.0000  0.0000 </r>
        <r>  0.0857  0.0001  0.0000  0.0000  0.0000  0.0000  0.0000  0.0000  0.0000 </r>
        <r>  0.3009  0.0002  0.0000  0.0003  0.0000  0.0000  0.0000  0.0000  0.0000 </r>
        <r>  0.3009  0.0002  0.0000  0.0003  0.0000  0.0000  0.0000  0.0000  0.0000 </r>
       </set>
       <set comment="band 8">
        <r>  0.0000  0.0062  0.0000  0.0104  0.0000  0.0088  0.0000  0.0092  0.0000 </r>
        <r>  0.0000  0.0050  0.0000  0.0007  0.0000  0.0318  0.0000  0.0315  0.0000 </r>
        <r>  0.3009  0.0002  0.0000  0.0003  0.0000  0.0000  0.0000  0.0000  0.0000 </r>
        <r>  0.3009  0.0002  0.0000  0.0003  0.0000  0.0000  0.0000  0.0000  0.0000 </r>
        <r>  0.0857  0.0001  0.0000  0.0000  0.0000  0.0000  0.0000  0.0000  0.0000 </r>
        <r>  0.0857  0.0001  0.0000  0.0000  0.0000  0.0000  0.0000  0.0000  0.0000 </r>
       </set>
       <set comment="band 9">
        <r>  0.0070  0.0000  0.0083  0.0000  0.0167  0.0000  0.0054  0.0000  0.0000 </r>
        <r>  0.0048  0.0000  0.0528  0.0000  0.0017  0.0000  0.0005  0.0000  0.0000 </r>
        <r>  0.3318  0.0000  0.0000  0.0000  0.0000  0.0000  0.0000  0.0000  0.0000 </r>
        <r>  0.3318  0.0000  0.0000  0.0000  0.0000  0.0000  0.0000  0.0000  0.0000 </r>
        <r>  0.0542  0.0000  0.0000  0.0000  0.0000  0.0000  0.0000  0.0000  0.0000 </r>
        <r>  0.0542  0.0000  0.0000  0.0000  0.0000  0.0000  0.0000  0.0000  0.0000 </r>
       </set>
       <set comment="band 10">
        <r>  0.0048  0.0000  0.0528  0.0000  0.0017  0.0000  0.0005  0.0000  0.0000 </r>
        <r>  0.0070  0.0000  0.0083  0.0000  0.0167  0.0000  0.0054  0.0000  0.0000 </r>
        <r>  0.0542  0.0000  0.0000  0.0000  0.0000  0.0000  0.0000  0.0000  0.0000 </r>
        <r>  0.0542  0.0000  0.0000  0.0000  0.0000  0.0000  0.0000  0.0000  0.0000 </r>
        <r>  0.3318  0.0000  0.0000  0.0000  0.0000  0.0000  0.0000  0.0000  0.0000 </r>
        <r>  0.3318  0.0000  0.0000  0.0000  0.0000  0.0000  0.0000  0.0000  0.0000 </r>
       </set>
       <set comment="band 11">
        <r>  0.0000  0.0117  0.0000  0.0026  0.0000  0.0388  0.0000  0.0712  0.0000 </r>
        <r>  0.0000  0.0184  0.0000  0.0275  0.0000  0.0356  0.0000  0.0033  0.0000 </r>
        <r>  0.0000  0.0043  0.0897  0.0216  0.0000  0.0000  0.0000  0.0000  0.0000 </r>
        <r>  0.0000  0.0043  0.0897  0.0216  0.0000  0.0000  0.0000  0.0000  0.0000 </r>
        <r>  0.0000  0.0495  0.0249  0.0322  0.0000  0.0000  0.0000  0.0000  0.0000 </r>
        <r>  0.0000  0.0495  0.0249  0.0322  0.0000  0.0000  0.0000  0.0000  0.0000 </r>
       </set>
       <set comment="band 12">
        <r>  0.0000  0.0184  0.0000  0.0275  0.0000  0.0356  0.0000  0.0033  0.0000 </r>
        <r>  0.0000  0.0117  0.0000  0.0026  0.0000  0.0388  0.0000  0.0712  0.0000 </r>
        <r>  0.0000  0.0495  0.0249  0.0322  0.0000  0.0000  0.0000  0.0000  0.0000 </r>
        <r>  0.0000  0.0495  0.0249  0.0322  0.0000  0.0000  0.0000  0.0000  0.0000 </r>
        <r>  0.0000  0.0043  0.0897  0.0216  0.0000  0.0000  0.0000  0.0000  0.0000 </r>
        <r>  0.0000  0.0043  0.0897  0.0216  0.0000  0.0000  0.0000  0.0000  0.0000 </r>
       </set>
       <set comment="band 13">
        <r>  0.1100  0.0000  0.0105  0.0000  0.0001  0.0000  0.0255  0.0000  0.0000 </r>
        <r>  0.0220  0.0000  0.0565  0.0000  0.0011  0.0000  0.0030  0.0000  0.0000 </r>
        <r>  0.0005  0.0641  0.0181  0.0641  0.0000  0.0000  0.0000  0.0000  0.0000 </r>
        <r>  0.0005  0.0641  0.0181  0.0641  0.0000  0.0000  0.0000  0.0000  0.0000 </r>
        <r>  0.0002  0.0072  0.1053  0.0072  0.0000  0.0000  0.0000  0.0000  0.0000 </r>
        <r>  0.0002  0.0072  0.1053  0.0072  0.0000  0.0000  0.0000  0.0000  0.0000 </r>
       </set>
       <set comment="band 14">
        <r>  0.0220  0.0000  0.0565  0.0000  0.0011  0.0000  0.0030  0.0000  0.0000 </r>
        <r>  0.1100  0.0000  0.0105  0.0000  0.0001  0.0000  0.0255  0.0000  0.0000 </r>
        <r>  0.0002  0.0072  0.1053  0.0072  0.0000  0.0000  0.0000  0.0000  0.0000 </r>
        <r>  0.0002  0.0072  0.1053  0.0072  0.0000  0.0000  0.0000  0.0000  0.0000 </r>
        <r>  0.0005  0.0641  0.0181  0.0641  0.0000  0.0000  0.0000  0.0000  0.0000 </r>
        <r>  0.0005  0.0641  0.0181  0.0641  0.0000  0.0000  0.0000  0.0000  0.0000 </r>
       </set>
       <set comment="band 15">
        <r>  0.0051  0.0000  0.0155  0.0000  0.1513  0.0000  0.0110  0.0000  0.0000 </r>
        <r>  0.0045  0.0000  0.0153  0.0000  0.1159  0.0000  0.0134  0.0000  0.0000 </r>
        <r>  0.0004  0.0370  0.0590  0.0370  0.0000  0.0000  0.0000  0.0000  0.0000 </r>
        <r>  0.0004  0.0370  0.0590  0.0370  0.0000  0.0000  0.0000  0.0000  0.0000 </r>
        <r>  0.0004  0.0296  0.0812  0.0296  0.0000  0.0000  0.0000  0.0000  0.0000 </r>
        <r>  0.0004  0.0296  0.0812  0.0296  0.0000  0.0000  0.0000  0.0000  0.0000 </r>
       </set>
       <set comment="band 16">
        <r>  0.0045  0.0000  0.0153  0.0000  0.1159  0.0000  0.0134  0.0000  0.0000 </r>
        <r>  0.0051  0.0000  0.0155  0.0000  0.1513  0.0000  0.0110  0.0000  0.0000 </r>
        <r>  0.0004  0.0296  0.0812  0.0296  0.0000  0.0000  0.0000  0.0000  0.0000 </r>
        <r>  0.0004  0.0296  0.0812  0.0296  0.0000  0.0000  0.0000  0.0000  0.0000 </r>
        <r>  0.0004  0.0370  0.0590  0.0370  0.0000  0.0000  0.0000  0.0000  0.0000 </r>
        <r>  0.0004  0.0370  0.0590  0.0370  0.0000  0.0000  0.0000  0.0000  0.0000 </r>
       </set>
       <set comment="band 17">
        <r>  0.0000  0.0319  0.0000  0.0263  0.0000  0.0018  0.0000  0.0213  0.0000 </r>
        <r>  0.0000  0.0006  0.0000  0.0062  0.0000  0.1048  0.0000  0.0853  0.0000 </r>
        <r>  0.0037  0.1241  0.0002  0.1465  0.0000  0.0000  0.0000  0.0000  0.0000 </r>
        <r>  0.0037  0.1241  0.0002  0.1465  0.0000  0.0000  0.0000  0.0000  0.0000 </r>
        <r>  0.0003  0.0262  0.0000  0.0038  0.0000  0.0000  0.0000  0.0000  0.0000 </r>
        <r>  0.0003  0.0262  0.0000  0.0038  0.0000  0.0000  0.0000  0.0000  0.0000 </r>
       </set>
       <set comment="band 18">
        <r>  0.0000  0.0006  0.0000  0.0062  0.0000  0.1048  0.0000  0.0853  0.0000 </r>
        <r>  0.0000  0.0319  0.0000  0.0263  0.0000  0.0018  0.0000  0.0213  0.0000 </r>
        <r>  0.0003  0.0262  0.0000  0.0038  0.0000  0.0000  0.0000  0.0000  0.0000 </r>
        <r>  0.0003  0.0262  0.0000  0.0038  0.0000  0.0000  0.0000  0.0000  0.0000 </r>
        <r>  0.0037  0.1241  0.0002  0.1465  0.0000  0.0000  0.0000  0.0000  0.0000 </r>
        <r>  0.0037  0.1241  0.0002  0.1465  0.0000  0.0000  0.0000  0.0000  0.0000 </r>
       </set>
       <set comment="band 19">
        <r>  0.0000  0.0000  0.0000  0.0000  0.0000  0.0000  0.0000  0.0000  0.0336 </r>
        <r>  0.0000  0.0000  0.0000  0.0000  0.0000  0.0000  0.0000  0.0000  0.0816 </r>
        <r>  0.0000  0.0806  0.0000  0.0806  0.0000  0.0000  0.0000  0.0000  0.0000 </r>
        <r>  0.0000  0.0806  0.0000  0.0806  0.0000  0.0000  0.0000  0.0000  0.0000 </r>
        <r>  0.0000  0.0789  0.0000  0.0789  0.0000  0.0000  0.0000  0.0000  0.0000 </r>
        <r>  0.0000  0.0789  0.0000  0.0789  0.0000  0.0000  0.0000  0.0000  0.0000 </r>
       </set>
       <set comment="band 20">
        <r>  0.0000  0.0000  0.0000  0.0000  0.0000  0.0000  0.0000  0.0000  0.0816 </r>
        <r>  0.0000  0.0000  0.0000  0.0000  0.0000  0.0000  0.0000  0.0000  0.0336 </r>
        <r>  0.0000  0.0789  0.0000  0.0789  0.0000  0.0000  0.0000  0.0000  0.0000 </r>
        <r>  0.0000  0.0789  0.0000  0.0789  0.0000  0.0000  0.0000  0.0000  0.0000 </r>
        <r>  0.0000  0.0806  0.0000  0.0806  0.0000  0.0000  0.0000  0.0000  0.0000 </r>
        <r>  0.0000  0.0806  0.0000  0.0806  0.0000  0.0000  0.0000  0.0000  0.0000 </r>
       </set>
       <set comment="band 21">
        <r>  0.0000  0.0097  0.0000  0.0192  0.0000  0.0096  0.0000  0.0027  0.0000 </r>
        <r>  0.0000  0.0155  0.0000  0.0060  0.0000  0.0046  0.0000  0.0116  0.0000 </r>
        <r>  0.0001  0.0359  0.0860  0.0592  0.0000  0.0000  0.0000  0.0000  0.0000 </r>
        <r>  0.0001  0.0359  0.0860  0.0592  0.0000  0.0000  0.0000  0.0000  0.0000 </r>
        <r>  0.0002  0.0466  0.1188  0.0233  0.0000  0.0000  0.0000  0.0000  0.0000 </r>
        <r>  0.0002  0.0466  0.1188  0.0233  0.0000  0.0000  0.0000  0.0000  0.0000 </r>
       </set>
       <set comment="band 22">
        <r>  0.0000  0.0155  0.0000  0.0060  0.0000  0.0046  0.0000  0.0116  0.0000 </r>
        <r>  0.0000  0.0097  0.0000  0.0192  0.0000  0.0096  0.0000  0.0027  0.0000 </r>
        <r>  0.0002  0.0466  0.1188  0.0233  0.0000  0.0000  0.0000  0.0000  0.0000 </r>
        <r>  0.0002  0.0466  0.1188  0.0233  0.0000  0.0000  0.0000  0.0000  0.0000 </r>
        <r>  0.0001  0.0359  0.0860  0.0592  0.0000  0.0000  0.0000  0.0000  0.0000 </r>
        <r>  0.0001  0.0359  0.0860  0.0592  0.0000  0.0000  0.0000  0.0000  0.0000 </r>
       </set>
       <set comment="band 23">
        <r>  0.0000  0.0000  0.0000  0.0000  0.0000  0.0000  0.0000  0.0000  0.5575 </r>
        <r>  0.0000  0.0000  0.0000  0.0000  0.0000  0.0000  0.0000  0.0000  0.2315 </r>
        <r>  0.0000  0.0156  0.0000  0.0156  0.0000  0.0000  0.0000  0.0000  0.0000 </r>
        <r>  0.0000  0.0156  0.0000  0.0156  0.0000  0.0000  0.0000  0.0000  0.0000 </r>
        <r>  0.0000  0.0097  0.0000  0.0097  0.0000  0.0000  0.0000  0.0000  0.0000 </r>
        <r>  0.0000  0.0097  0.0000  0.0097  0.0000  0.0000  0.0000  0.0000  0.0000 </r>
       </set>
       <set comment="band 24">
        <r>  0.0000  0.0000  0.0000  0.0000  0.0000  0.0000  0.0000  0.0000  0.2315 </r>
        <r>  0.0000  0.0000  0.0000  0.0000  0.0000  0.0000  0.0000  0.0000  0.5575 </r>
        <r>  0.0000  0.0097  0.0000  0.0097  0.0000  0.0000  0.0000  0.0000  0.0000 </r>
        <r>  0.0000  0.0097  0.0000  0.0097  0.0000  0.0000  0.0000  0.0000  0.0000 </r>
        <r>  0.0000  0.0156  0.0000  0.0156  0.0000  0.0000  0.0000  0.0000  0.0000 </r>
        <r>  0.0000  0.0156  0.0000  0.0156  0.0000  0.0000  0.0000  0.0000  0.0000 </r>
       </set>
       <set comment="band 25">
        <r>  0.0000  0.0066  0.0000  0.0066  0.0000  0.0625  0.0000  0.0413  0.0000 </r>
        <r>  0.0000  0.0011  0.0000  0.0010  0.0000  0.3043  0.0000  0.3256  0.0000 </r>
        <r>  0.0000  0.0296  0.0010  0.0258  0.0000  0.0000  0.0000  0.0000  0.0000 </r>
        <r>  0.0000  0.0296  0.0010  0.0258  0.0000  0.0000  0.0000  0.0000  0.0000 </r>
        <r>  0.0000  0.0028  0.0063  0.0066  0.0000  0.0000  0.0000  0.0000  0.0000 </r>
        <r>  0.0000  0.0028  0.0063  0.0066  0.0000  0.0000  0.0000  0.0000  0.0000 </r>
       </set>
       <set comment="band 26">
        <r>  0.0000  0.0011  0.0000  0.0010  0.0000  0.3044  0.0000  0.3256  0.0000 </r>
        <r>  0.0000  0.0066  0.0000  0.0066  0.0000  0.0625  0.0000  0.0413  0.0000 </r>
        <r>  0.0000  0.0028  0.0063  0.0066  0.0000  0.0000  0.0000  0.0000  0.0000 </r>
        <r>  0.0000  0.0028  0.0063  0.0066  0.0000  0.0000  0.0000  0.0000  0.0000 </r>
        <r>  0.0000  0.0296  0.0010  0.0258  0.0000  0.0000  0.0000  0.0000  0.0000 </r>
        <r>  0.0000  0.0296  0.0010  0.0258  0.0000  0.0000  0.0000  0.0000  0.0000 </r>
       </set>
       <set comment="band 27">
        <r>  0.0046  0.0000  0.0002  0.0000  0.1210  0.0000  0.7766  0.0000  0.0000 </r>
        <r>  0.0007  0.0000  0.0007  0.0000  0.0039  0.0000  0.0181  0.0000  0.0000 </r>
        <r>  0.0000  0.0010  0.0001  0.0010  0.0000  0.0000  0.0000  0.0000  0.0000 </r>
        <r>  0.0000  0.0010  0.0001  0.0010  0.0000  0.0000  0.0000  0.0000  0.0000 </r>
        <r>  0.0004  0.0002  0.0157  0.0002  0.0000  0.0000  0.0000  0.0000  0.0000 </r>
        <r>  0.0004  0.0002  0.0157  0.0002  0.0000  0.0000  0.0000  0.0000  0.0000 </r>
       </set>
       <set comment="band 28">
        <r>  0.0007  0.0000  0.0007  0.0000  0.0039  0.0000  0.0181  0.0000  0.0000 </r>
        <r>  0.0046  0.0000  0.0002  0.0000  0.1210  0.0000  0.7766  0.0000  0.0000 </r>
        <r>  0.0004  0.0002  0.0157  0.0002  0.0000  0.0000  0.0000  0.0000  0.0000 </r>
        <r>  0.0004  0.0002  0.0157  0.0002  0.0000  0.0000  0.0000  0.0000  0.0000 </r>
        <r>  0.0000  0.0010  0.0001  0.0010  0.0000  0.0000  0.0000  0.0000  0.0000 </r>
        <r>  0.0000  0.0010  0.0001  0.0010  0.0000  0.0000  0.0000  0.0000  0.0000 </r>
       </set>
       <set comment="band 29">
        <r>  0.0030  0.0000  0.0035  0.0000  0.4634  0.0000  0.0857  0.0000  0.0000 </r>
        <r>  0.0010  0.0000  0.0124  0.0000  0.1367  0.0000  0.0269  0.0000  0.0000 </r>
        <r>  0.0074  0.0207  0.0101  0.0207  0.0000  0.0000  0.0000  0.0000  0.0000 </r>
        <r>  0.0074  0.0207  0.0101  0.0207  0.0000  0.0000  0.0000  0.0000  0.0000 </r>
        <r>  0.0021  0.0061  0.0326  0.0061  0.0000  0.0000  0.0000  0.0000  0.0000 </r>
        <r>  0.0021  0.0061  0.0326  0.0061  0.0000  0.0000  0.0000  0.0000  0.0000 </r>
       </set>
       <set comment="band 30">
        <r>  0.0010  0.0000  0.0124  0.0000  0.1367  0.0000  0.0269  0.0000  0.0000 </r>
        <r>  0.0029  0.0000  0.0035  0.0000  0.4634  0.0000  0.0857  0.0000  0.0000 </r>
        <r>  0.0021  0.0061  0.0326  0.0061  0.0000  0.0000  0.0000  0.0000  0.0000 </r>
        <r>  0.0021  0.0061  0.0326  0.0061  0.0000  0.0000  0.0000  0.0000  0.0000 </r>
        <r>  0.0074  0.0207  0.0101  0.0207  0.0000  0.0000  0.0000  0.0000  0.0000 </r>
        <r>  0.0074  0.0207  0.0101  0.0207  0.0000  0.0000  0.0000  0.0000  0.0000 </r>
       </set>
       <set comment="band 31">
        <r>  0.0000  0.0008  0.0000  0.0006  0.0000  0.3438  0.0000  0.3465  0.0000 </r>
        <r>  0.0000  0.0075  0.0000  0.0077  0.0000  0.0269  0.0000  0.0241  0.0000 </r>
        <r>  0.0016  0.0028  0.0002  0.0025  0.0000  0.0000  0.0000  0.0000  0.0000 </r>
        <r>  0.0016  0.0029  0.0002  0.0025  0.0000  0.0000  0.0000  0.0000  0.0000 </r>
        <r>  0.0228  0.0336  0.0023  0.0340  0.0000  0.0000  0.0000  0.0000  0.0000 </r>
        <r>  0.0228  0.0337  0.0024  0.0341  0.0000  0.0000  0.0000  0.0000  0.0000 </r>
       </set>
       <set comment="band 32">
        <r>  0.0000  0.0075  0.0000  0.0077  0.0000  0.0269  0.0000  0.0241  0.0000 </r>
        <r>  0.0000  0.0008  0.0000  0.0006  0.0000  0.3438  0.0000  0.3465  0.0000 </r>
        <r>  0.0228  0.0336  0.0023  0.0341  0.0000  0.0000  0.0000  0.0000  0.0000 </r>
        <r>  0.0228  0.0337  0.0023  0.0341  0.0000  0.0000  0.0000  0.0000  0.0000 </r>
        <r>  0.0016  0.0029  0.0002  0.0025  0.0000  0.0000  0.0000  0.0000  0.0000 </r>
        <r>  0.0016  0.0029  0.0002  0.0025  0.0000  0.0000  0.0000  0.0000  0.0000 </r>
       </set>
      </set>
     </set>
    </set>
   </array>
  </projected>
 </calculation>
 <structure name="finalpos" >
  <crystal>
   <varray name="basis" >
    <v>       4.60094756      -0.00000000       0.00000000 </v>
    <v>       0.00000000       4.60094756       0.00000000 </v>
    <v>      -0.00000000      -0.00000000       2.94242885 </v>
   </varray>
   <i name="volume">     62.28744797 </i>
   <varray name="rec_basis" >
    <v>       0.21734653      -0.00000000       0.00000000 </v>
    <v>       0.00000000       0.21734653       0.00000000 </v>
    <v>      -0.00000000      -0.00000000       0.33985529 </v>
   </varray>
  </crystal>
  <varray name="positions" >
   <v>       0.50000000       0.50000000       0.50000000 </v>
   <v>       0.00000000       0.00000000       0.00000000 </v>
   <v>       0.19567008       0.80432992       0.50000000 </v>
   <v>       0.80432992       0.19567008       0.50000000 </v>
   <v>       0.30432992       0.30432992       0.00000000 </v>
   <v>       0.69567008       0.69567008       0.00000000 </v>
  </varray>
 </structure>
</modeling>
