<?xml version="1.0" encoding="ISO-8859-1"?>
<modeling>
 <generator>
  <i name="program" type="string">vasp </i>
  <i name="version" type="string">6.2.1  </i>
  <i name="subversion" type="string">16May21 (build Feb 21 2022 05:53:28) complex                          parallel </i>
  <i name="platform" type="string">CrayXC_GCC_OMP </i>
  <i name="date" type="string">2023 01 20 </i>
  <i name="time" type="string">06:16:08 </i>
 </generator>
 <incar>
  <i type="int" name="ISTART">     0</i>
  <i type="string" name="PREC">Accurate</i>
  <i type="string" name="ALGO">All</i>
  <i type="int" name="ICHARG">    11</i>
  <i type="int" name="IBRION">     2</i>
  <i name="EDIFF">      0.00000100</i>
  <i name="EDIFFG">     -0.01000000</i>
  <i type="int" name="NSW">     0</i>
  <i type="int" name="ISIF">     2</i>
  <i name="ENCUT">    500.00000000</i>
  <i type="int" name="NBANDS">    88</i>
  <i name="POTIM">      0.10000000</i>
  <i type="logical" name="LREAL"> F  </i>
  <i type="int" name="ISMEAR">     0</i>
  <i name="SIGMA">      0.05000000</i>
  <i type="logical" name="LWAVE"> F  </i>
  <i type="logical" name="LCHARG"> T  </i>
  <i type="string" name="GGA">PS</i>
 </incar>
 <primitive_cell>
  <structure name="primitive_cell" >
   <crystal>
    <varray name="basis" >
     <v>       4.60094756      -0.00000000       0.00000000 </v>
     <v>       0.00000000       4.60094756       0.00000000 </v>
     <v>      -0.00000000      -0.00000000       2.94242885 </v>
    </varray>
    <i name="volume">     62.28744797 </i>
    <varray name="rec_basis" >
     <v>       0.21734653      -0.00000000       0.00000000 </v>
     <v>       0.00000000       0.21734653       0.00000000 </v>
     <v>      -0.00000000      -0.00000000       0.33985529 </v>
    </varray>
   </crystal>
   <varray name="positions" >
    <v>       0.50000000       0.50000000       0.50000000 </v>
    <v>       0.00000000       0.00000000       0.00000000 </v>
    <v>       0.19567008       0.80432992       0.50000000 </v>
    <v>       0.80432992       0.19567008       0.50000000 </v>
    <v>       0.30432992       0.30432992       0.00000000 </v>
    <v>       0.69567008       0.69567008       0.00000000 </v>
   </varray>
  </structure>
  <varray name="primitive_index" >
   <v type="int" >        1 </v>
   <v type="int" >        2 </v>
   <v type="int" >        3 </v>
   <v type="int" >        4 </v>
   <v type="int" >        5 </v>
   <v type="int" >        6 </v>
  </varray>
 </primitive_cell>
 <kpoints>
  <varray name="kpointlist" >
   <v>       0.00000000       0.00000000       0.00000000 </v>
   <v>       0.16666667      -0.00000000       0.00000000 </v>
   <v>       0.33333333       0.00000000       0.00000000 </v>
   <v>       0.50000000       0.00000000       0.00000000 </v>
   <v>       0.16666667       0.16666667       0.00000000 </v>
   <v>       0.33333333       0.16666667       0.00000000 </v>
   <v>       0.50000000       0.16666667       0.00000000 </v>
   <v>       0.33333333       0.33333333       0.00000000 </v>
   <v>       0.50000000       0.33333333       0.00000000 </v>
   <v>       0.50000000       0.50000000       0.00000000 </v>
   <v>      -0.00000000      -0.00000000       0.11111111 </v>
   <v>       0.16666667      -0.00000000       0.11111111 </v>
   <v>       0.33333333       0.00000000       0.11111111 </v>
   <v>       0.50000000       0.00000000       0.11111111 </v>
   <v>       0.16666667       0.16666667       0.11111111 </v>
   <v>       0.33333333       0.16666667       0.11111111 </v>
   <v>       0.50000000       0.16666667       0.11111111 </v>
   <v>       0.33333333       0.33333333       0.11111111 </v>
   <v>       0.50000000       0.33333333       0.11111111 </v>
   <v>       0.50000000       0.50000000       0.11111111 </v>
   <v>       0.00000000       0.00000000       0.22222222 </v>
   <v>       0.16666667      -0.00000000       0.22222222 </v>
   <v>       0.33333333       0.00000000       0.22222222 </v>
   <v>       0.50000000       0.00000000       0.22222222 </v>
   <v>       0.16666667       0.16666667       0.22222222 </v>
   <v>       0.33333333       0.16666667       0.22222222 </v>
   <v>       0.50000000       0.16666667       0.22222222 </v>
   <v>       0.33333333       0.33333333       0.22222222 </v>
   <v>       0.50000000       0.33333333       0.22222222 </v>
   <v>       0.50000000       0.50000000       0.22222222 </v>
   <v>      -0.00000000      -0.00000000       0.33333333 </v>
   <v>       0.16666667      -0.00000000       0.33333333 </v>
   <v>       0.33333333      -0.00000000       0.33333333 </v>
   <v>       0.50000000      -0.00000000       0.33333333 </v>
   <v>       0.16666667       0.16666667       0.33333333 </v>
   <v>       0.33333333       0.16666667       0.33333333 </v>
   <v>       0.50000000       0.16666667       0.33333333 </v>
   <v>       0.33333333       0.33333333       0.33333333 </v>
   <v>       0.50000000       0.33333333       0.33333333 </v>
   <v>       0.50000000       0.50000000       0.33333333 </v>
   <v>       0.00000000       0.00000000       0.44444444 </v>
   <v>       0.16666667       0.00000000       0.44444444 </v>
   <v>       0.33333333       0.00000000       0.44444444 </v>
   <v>       0.50000000       0.00000000       0.44444444 </v>
   <v>       0.16666667       0.16666667       0.44444444 </v>
   <v>       0.33333333       0.16666667       0.44444444 </v>
   <v>       0.50000000       0.16666667       0.44444444 </v>
   <v>       0.33333333       0.33333333       0.44444444 </v>
   <v>       0.50000000       0.33333333       0.44444444 </v>
   <v>       0.50000000       0.50000000       0.44444444 </v>
   <v>       0.43103448       0.43103448       0.00000000 </v>
   <v>       0.42241379       0.42241379       0.00000000 </v>
   <v>       0.41379310       0.41379310       0.00000000 </v>
   <v>       0.40517241       0.40517241       0.00000000 </v>
   <v>       0.39655172       0.39655172       0.00000000 </v>
   <v>       0.38793103       0.38793103       0.00000000 </v>
   <v>       0.37931034       0.37931034       0.00000000 </v>
   <v>       0.37068966       0.37068966       0.00000000 </v>
   <v>       0.36206897       0.36206897       0.00000000 </v>
   <v>       0.35344828       0.35344828       0.00000000 </v>
   <v>       0.34482759       0.34482759       0.00000000 </v>
   <v>       0.33620690       0.33620690       0.00000000 </v>
   <v>       0.32758621       0.32758621       0.00000000 </v>
   <v>       0.31896552       0.31896552       0.00000000 </v>
   <v>       0.31034483       0.31034483       0.00000000 </v>
   <v>       0.30172414       0.30172414       0.00000000 </v>
   <v>       0.29310345       0.29310345       0.00000000 </v>
   <v>       0.28448276       0.28448276       0.00000000 </v>
   <v>       0.27586207       0.27586207       0.00000000 </v>
   <v>       0.26724138       0.26724138       0.00000000 </v>
   <v>       0.25862069       0.25862069       0.00000000 </v>
   <v>       0.25000000       0.25000000       0.00000000 </v>
   <v>       0.24137931       0.24137931       0.00000000 </v>
   <v>       0.23275862       0.23275862       0.00000000 </v>
   <v>       0.22413793       0.22413793       0.00000000 </v>
   <v>       0.21551724       0.21551724       0.00000000 </v>
   <v>       0.20689655       0.20689655       0.00000000 </v>
   <v>       0.19827586       0.19827586       0.00000000 </v>
   <v>       0.18965517       0.18965517       0.00000000 </v>
   <v>       0.18103448       0.18103448       0.00000000 </v>
   <v>       0.17241379       0.17241379       0.00000000 </v>
   <v>       0.16379310       0.16379310       0.00000000 </v>
   <v>       0.15517241       0.15517241       0.00000000 </v>
   <v>       0.14655172       0.14655172       0.00000000 </v>
   <v>       0.13793103       0.13793103       0.00000000 </v>
   <v>       0.12931034       0.12931034       0.00000000 </v>
   <v>       0.12068966       0.12068966       0.00000000 </v>
   <v>       0.11206897       0.11206897       0.00000000 </v>
   <v>       0.10344828       0.10344828       0.00000000 </v>
   <v>       0.09482759       0.09482759       0.00000000 </v>
   <v>       0.08620690       0.08620690       0.00000000 </v>
   <v>       0.07758621       0.07758621       0.00000000 </v>
   <v>       0.06896552       0.06896552       0.00000000 </v>
   <v>       0.06034483       0.06034483       0.00000000 </v>
   <v>       0.05172414       0.05172414       0.00000000 </v>
   <v>       0.04310345       0.04310345       0.00000000 </v>
   <v>       0.03448276       0.03448276       0.00000000 </v>
   <v>       0.02586207       0.02586207       0.00000000 </v>
   <v>       0.01724138       0.01724138       0.00000000 </v>
   <v>       0.00862069       0.00862069       0.00000000 </v>
   <v>       0.00000000       0.00000000       0.00000000 </v>
   <v>      -0.00000000       0.00000000       0.00769231 </v>
   <v>      -0.00000000       0.00000000       0.01538462 </v>
   <v>       0.00000000       0.00000000       0.02307692 </v>
   <v>      -0.00000000       0.00000000       0.03076923 </v>
   <v>       0.00000000      -0.00000000       0.03846154 </v>
   <v>       0.00000000       0.00000000       0.04615385 </v>
   <v>       0.00000000       0.00000000       0.05384615 </v>
   <v>      -0.00000000       0.00000000       0.06153846 </v>
   <v>       0.00000000      -0.00000000       0.06923077 </v>
   <v>       0.00000000      -0.00000000       0.07692308 </v>
   <v>       0.00000000      -0.00000000       0.08461538 </v>
   <v>       0.00000000       0.00000000       0.09230769 </v>
   <v>       0.00000000       0.00000000       0.10000000 </v>
   <v>       0.00000000       0.00000000       0.10769231 </v>
   <v>      -0.00000000       0.00000000       0.11538462 </v>
   <v>      -0.00000000       0.00000000       0.12307692 </v>
   <v>       0.00000000       0.00000000       0.13076923 </v>
   <v>       0.00000000      -0.00000000       0.13846154 </v>
   <v>       0.00000000      -0.00000000       0.14615385 </v>
   <v>       0.00000000      -0.00000000       0.15384615 </v>
   <v>       0.00000000      -0.00000000       0.16153846 </v>
   <v>       0.00000000      -0.00000000       0.16923077 </v>
   <v>       0.00000000       0.00000000       0.17692308 </v>
   <v>       0.00000000       0.00000000       0.18461538 </v>
   <v>       0.00000000      -0.00000000       0.19230769 </v>
   <v>       0.00000000       0.00000000       0.20000000 </v>
   <v>      -0.00000000       0.00000000       0.20769231 </v>
   <v>       0.00000000       0.00000000       0.21538462 </v>
   <v>      -0.00000000      -0.00000000       0.22307692 </v>
   <v>      -0.00000000       0.00000000       0.23076923 </v>
   <v>       0.00000000       0.00000000       0.23846154 </v>
   <v>      -0.00000000       0.00000000       0.24615385 </v>
   <v>       0.00000000       0.00000000       0.25384615 </v>
   <v>       0.00000000       0.00000000       0.26153846 </v>
   <v>       0.00000000       0.00000000       0.26923077 </v>
   <v>       0.00000000      -0.00000000       0.27692308 </v>
   <v>       0.00000000      -0.00000000       0.28461538 </v>
   <v>       0.00000000      -0.00000000       0.29230769 </v>
   <v>      -0.00000000      -0.00000000       0.30000000 </v>
  </varray>
  <varray name="weights" >
   <v>       0.00308642 </v>
   <v>       0.01234568 </v>
   <v>       0.01234568 </v>
   <v>       0.00617284 </v>
   <v>       0.01234568 </v>
   <v>       0.02469136 </v>
   <v>       0.01234568 </v>
   <v>       0.01234568 </v>
   <v>       0.01234568 </v>
   <v>       0.00308642 </v>
   <v>       0.00617284 </v>
   <v>       0.02469136 </v>
   <v>       0.02469136 </v>
   <v>       0.01234568 </v>
   <v>       0.02469136 </v>
   <v>       0.04938272 </v>
   <v>       0.02469136 </v>
   <v>       0.02469136 </v>
   <v>       0.02469136 </v>
   <v>       0.00617284 </v>
   <v>       0.00617284 </v>
   <v>       0.02469136 </v>
   <v>       0.02469136 </v>
   <v>       0.01234568 </v>
   <v>       0.02469136 </v>
   <v>       0.04938272 </v>
   <v>       0.02469136 </v>
   <v>       0.02469136 </v>
   <v>       0.02469136 </v>
   <v>       0.00617284 </v>
   <v>       0.00617284 </v>
   <v>       0.02469136 </v>
   <v>       0.02469136 </v>
   <v>       0.01234568 </v>
   <v>       0.02469136 </v>
   <v>       0.04938272 </v>
   <v>       0.02469136 </v>
   <v>       0.02469136 </v>
   <v>       0.02469136 </v>
   <v>       0.00617284 </v>
   <v>       0.00617284 </v>
   <v>       0.02469136 </v>
   <v>       0.02469136 </v>
   <v>       0.01234568 </v>
   <v>       0.02469136 </v>
   <v>       0.04938272 </v>
   <v>       0.02469136 </v>
   <v>       0.02469136 </v>
   <v>       0.02469136 </v>
   <v>       0.00617284 </v>
   <v>       0.00000000 </v>
   <v>       0.00000000 </v>
   <v>       0.00000000 </v>
   <v>       0.00000000 </v>
   <v>       0.00000000 </v>
   <v>       0.00000000 </v>
   <v>       0.00000000 </v>
   <v>       0.00000000 </v>
   <v>       0.00000000 </v>
   <v>       0.00000000 </v>
   <v>       0.00000000 </v>
   <v>       0.00000000 </v>
   <v>       0.00000000 </v>
   <v>       0.00000000 </v>
   <v>       0.00000000 </v>
   <v>       0.00000000 </v>
   <v>       0.00000000 </v>
   <v>       0.00000000 </v>
   <v>       0.00000000 </v>
   <v>       0.00000000 </v>
   <v>       0.00000000 </v>
   <v>       0.00000000 </v>
   <v>       0.00000000 </v>
   <v>       0.00000000 </v>
   <v>       0.00000000 </v>
   <v>       0.00000000 </v>
   <v>       0.00000000 </v>
   <v>       0.00000000 </v>
   <v>       0.00000000 </v>
   <v>       0.00000000 </v>
   <v>       0.00000000 </v>
   <v>       0.00000000 </v>
   <v>       0.00000000 </v>
   <v>       0.00000000 </v>
   <v>       0.00000000 </v>
   <v>       0.00000000 </v>
   <v>       0.00000000 </v>
   <v>       0.00000000 </v>
   <v>       0.00000000 </v>
   <v>       0.00000000 </v>
   <v>       0.00000000 </v>
   <v>       0.00000000 </v>
   <v>       0.00000000 </v>
   <v>       0.00000000 </v>
   <v>       0.00000000 </v>
   <v>       0.00000000 </v>
   <v>       0.00000000 </v>
   <v>       0.00000000 </v>
   <v>       0.00000000 </v>
   <v>       0.00000000 </v>
   <v>       0.00000000 </v>
   <v>       0.00000000 </v>
   <v>       0.00000000 </v>
   <v>       0.00000000 </v>
   <v>       0.00000000 </v>
   <v>       0.00000000 </v>
   <v>       0.00000000 </v>
   <v>       0.00000000 </v>
   <v>       0.00000000 </v>
   <v>       0.00000000 </v>
   <v>       0.00000000 </v>
   <v>       0.00000000 </v>
   <v>       0.00000000 </v>
   <v>       0.00000000 </v>
   <v>       0.00000000 </v>
   <v>       0.00000000 </v>
   <v>       0.00000000 </v>
   <v>       0.00000000 </v>
   <v>       0.00000000 </v>
   <v>       0.00000000 </v>
   <v>       0.00000000 </v>
   <v>       0.00000000 </v>
   <v>       0.00000000 </v>
   <v>       0.00000000 </v>
   <v>       0.00000000 </v>
   <v>       0.00000000 </v>
   <v>       0.00000000 </v>
   <v>       0.00000000 </v>
   <v>       0.00000000 </v>
   <v>       0.00000000 </v>
   <v>       0.00000000 </v>
   <v>       0.00000000 </v>
   <v>       0.00000000 </v>
   <v>       0.00000000 </v>
   <v>       0.00000000 </v>
   <v>       0.00000000 </v>
   <v>       0.00000000 </v>
   <v>       0.00000000 </v>
   <v>       0.00000000 </v>
   <v>       0.00000000 </v>
  </varray>
 </kpoints>
 <parameters>
  <separator name="general" >
   <i type="string" name="SYSTEM">unknown system</i>
   <i type="logical" name="LCOMPAT"> F  </i>
  </separator>
  <separator name="electronic" >
   <i type="string" name="PREC">accura</i>
   <i name="ENMAX">    500.00000000</i>
   <i name="ENAUG">    605.39200000</i>
   <i name="EDIFF">      0.00000100</i>
   <i type="int" name="IALGO">    58</i>
   <i type="int" name="IWAVPR">    10</i>
   <i type="int" name="NBANDS">    96</i>
   <i type="int" name="NBANDSLOW">    -1</i>
   <i type="int" name="NBANDSHIGH">    -1</i>
   <i name="NELECT">     44.00000000</i>
   <i type="int" name="TURBO">     0</i>
   <i type="int" name="IRESTART">     0</i>
   <i type="int" name="NREBOOT">     0</i>
   <i type="int" name="NMIN">     0</i>
   <i name="EREF">      0.00000000</i>
   <separator name="electronic smearing" >
    <i type="int" name="ISMEAR">     0</i>
    <i name="SIGMA">      0.05000000</i>
    <i name="KSPACING">      0.50000000</i>
    <i type="logical" name="KGAMMA"> T  </i>
    <i type="logical" name="KBLOWUP"> T  </i>
   </separator>
   <separator name="electronic projectors" >
    <i type="logical" name="LREAL"> F  </i>
    <v name="ROPT">      0.00000000      0.00000000</v>
    <i type="int" name="LMAXPAW">  -100</i>
    <i type="int" name="LMAXMIX">     2</i>
    <i type="logical" name="NLSPLINE"> F  </i>
   </separator>
   <separator name="electronic startup" >
    <i type="int" name="ISTART">     0</i>
    <i type="int" name="ICHARG">    11</i>
    <i type="int" name="INIWAV">     1</i>
   </separator>
   <separator name="electronic spin" >
    <i type="int" name="ISPIN">     1</i>
    <i type="logical" name="LNONCOLLINEAR"> F  </i>
    <v name="MAGMOM">      1.00000000      1.00000000      1.00000000      1.00000000      1.00000000      1.00000000</v>
    <i name="NUPDOWN">     -1.00000000</i>
    <i type="logical" name="LSORBIT"> F  </i>
    <v name="SAXIS">      0.00000000      0.00000000      1.00000000</v>
    <i type="logical" name="LSPIRAL"> F  </i>
    <v name="QSPIRAL">      0.00000000      0.00000000      0.00000000</v>
    <i type="logical" name="LZEROZ"> F  </i>
   </separator>
   <separator name="electronic exchange-correlation" >
    <i type="logical" name="LASPH"> F  </i>
    <i type="logical" name="LMETAGGA"> F  </i>
   </separator>
   <separator name="electronic convergence" >
    <i type="int" name="NELM">    60</i>
    <i type="int" name="NELMDL">    -5</i>
    <i type="int" name="NELMIN">     2</i>
    <i name="ENINI">    500.00000000</i>
    <separator name="electronic convergence detail" >
     <i type="logical" name="LDIAG"> T  </i>
     <i type="logical" name="LSUBROT"> F  </i>
     <i name="WEIMIN">      0.00000000</i>
     <i name="EBREAK">      0.00000000</i>
     <i name="DEPER">      0.30000000</i>
     <i type="int" name="NRMM">     4</i>
     <i name="TIME">      0.40000000</i>
    </separator>
   </separator>
   <separator name="electronic mixer" >
    <i name="AMIX">      0.40000000</i>
    <i name="BMIX">      1.00000000</i>
    <i name="AMIN">      0.10000000</i>
    <i name="AMIX_MAG">      1.60000000</i>
    <i name="BMIX_MAG">      1.00000000</i>
    <separator name="electronic mixer details" >
     <i type="int" name="IMIX">     4</i>
     <i type="logical" name="MIXFIRST"> F  </i>
     <i type="int" name="MAXMIX">   -45</i>
     <i name="WC">    100.00000000</i>
     <i type="int" name="INIMIX">     1</i>
     <i type="int" name="MIXPRE">     1</i>
     <i type="int" name="MREMOVE">     5</i>
    </separator>
   </separator>
   <separator name="electronic dipolcorrection" >
    <i type="logical" name="LDIPOL"> F  </i>
    <i type="logical" name="LMONO"> F  </i>
    <i type="int" name="IDIPOL">     0</i>
    <i name="EPSILON">      1.00000000</i>
    <v name="DIPOL">   -100.00000000   -100.00000000   -100.00000000</v>
    <i name="EFIELD">      0.00000000</i>
   </separator>
  </separator>
  <separator name="grids" >
   <i type="int" name="NGX">    36</i>
   <i type="int" name="NGY">    36</i>
   <i type="int" name="NGZ">    24</i>
   <i type="int" name="NGXF">    72</i>
   <i type="int" name="NGYF">    72</i>
   <i type="int" name="NGZF">    48</i>
   <i type="logical" name="ADDGRID"> F  </i>
  </separator>
  <separator name="ionic" >
   <i type="int" name="NSW">     0</i>
   <i type="int" name="IBRION">    -1</i>
   <i type="int" name="MDALGO">     0</i>
   <i type="int" name="ISIF">     2</i>
   <i name="PSTRESS">      0.00000000</i>
   <i name="EDIFFG">     -0.01000000</i>
   <i type="int" name="NFREE">     1</i>
   <i name="POTIM">      0.10000000</i>
   <i name="SMASS">     -3.00000000</i>
   <i name="SCALEE">      1.00000000</i>
  </separator>
  <separator name="ionic md" >
   <i name="TEBEG">      0.00010000</i>
   <i name="TEEND">      0.00010000</i>
   <i type="int" name="NBLOCK">     1</i>
   <i type="int" name="KBLOCK">     1</i>
   <i type="int" name="NPACO">   256</i>
   <i name="APACO">     16.00000000</i>
  </separator>
  <separator name="symmetry" >
   <i type="int" name="ISYM">     2</i>
   <i name="SYMPREC">      0.00001000</i>
  </separator>
  <separator name="dos" >
   <i type="int" name="LORBIT">     0</i>
   <v name="RWIGS">     -1.00000000     -1.00000000</v>
   <i type="int" name="NEDOS">   301</i>
   <i name="EMIN">     10.00000000</i>
   <i name="EMAX">    -10.00000000</i>
   <i name="EFERMI">      0.00000000</i>
  </separator>
  <separator name="writing" >
   <i type="int" name="NWRITE">     2</i>
   <i type="logical" name="LWAVE"> F  </i>
   <i type="logical" name="LDOWNSAMPLE"> F  </i>
   <i type="logical" name="LCHARG"> T  </i>
   <i type="logical" name="LPARD"> F  </i>
   <i type="logical" name="LVTOT"> F  </i>
   <i type="logical" name="LVHAR"> F  </i>
   <i type="logical" name="LELF"> F  </i>
   <i type="logical" name="LOPTICS"> F  </i>
   <v name="STM">      0.00000000      0.00000000      0.00000000      0.00000000      0.00000000      0.00000000      0.00000000</v>
  </separator>
  <separator name="performance" >
   <i type="int" name="NPAR">    16</i>
   <i type="int" name="NSIM">     4</i>
   <i type="int" name="NBLK">    -1</i>
   <i type="logical" name="LPLANE"> T  </i>
   <i type="logical" name="LSCALAPACK"> T  </i>
   <i type="logical" name="LSCAAWARE"> T  </i>
   <i type="logical" name="LSCALU"> F  </i>
   <i type="logical" name="LASYNC"> F  </i>
   <i type="logical" name="LORBITALREAL"> F  </i>
  </separator>
  <separator name="miscellaneous" >
   <i type="int" name="IDIOT">     3</i>
   <i type="int" name="PHON_NSTRUCT">    -1</i>
   <i type="logical" name="LMUSIC"> F  </i>
   <v name="POMASS">     47.88000000     16.00000000</v>
   <v name="DARWINR">      0.00000000      0.00000000</v>
   <v name="DARWINV">      1.00000000      1.00000000</v>
   <i type="logical" name="LCORR"> T  </i>
  </separator>
  <i type="logical" name="GGA_COMPAT"> T  </i>
  <i type="logical" name="LBERRY"> F  </i>
  <i type="int" name="ICORELEVEL">     0</i>
  <i type="logical" name="LDAU"> F  </i>
  <i type="int" name="I_CONSTRAINED_M">     0</i>
  <separator name="electronic exchange-correlation" >
   <i type="string" name="GGA">PS</i>
   <i type="int" name="VOSKOWN">     0</i>
   <i type="logical" name="LHFCALC"> F  </i>
   <i type="string" name="PRECFOCK"></i>
   <i type="logical" name="LSYMGRAD"> F  </i>
   <i type="logical" name="LHFONE"> F  </i>
   <i type="logical" name="LRHFCALC"> F  </i>
   <i type="logical" name="LTHOMAS"> F  </i>
   <i type="logical" name="LMODELHF"> F  </i>
   <i type="logical" name="LFOCKACE"> F  </i>
   <i name="ENCUT4O">     -1.00000000</i>
   <i type="int" name="EXXOEP">     0</i>
   <i type="int" name="FOURORBIT">     0</i>
   <i name="AEXX">      0.00000000</i>
   <i name="HFALPHA">      0.00000000</i>
   <i name="MCALPHA">      0.00000000</i>
   <i name="ALDAX">      1.00000000</i>
   <i name="AGGAX">      1.00000000</i>
   <i name="ALDAC">      1.00000000</i>
   <i name="AGGAC">      1.00000000</i>
   <i type="int" name="NKREDX">     1</i>
   <i type="int" name="NKREDY">     1</i>
   <i type="int" name="NKREDZ">     1</i>
   <i type="logical" name="SHIFTRED"> F  </i>
   <i type="logical" name="ODDONLY"> F  </i>
   <i type="logical" name="EVENONLY"> F  </i>
   <i type="int" name="LMAXFOCK">     0</i>
   <i type="int" name="NMAXFOCKAE">     0</i>
   <i type="logical" name="LFOCKAEDFT"> F  </i>
   <i name="HFSCREEN">      0.00000000</i>
   <i name="HFSCREENC">      0.00000000</i>
   <i type="int" name="NBANDSGWLOW">     0</i>
  </separator>
  <separator name="vdW DFT" >
   <i type="logical" name="LUSE_VDW"> F  </i>
   <i name="Zab_VDW">     -0.84910000</i>
   <i name="PARAM1">      0.12340000</i>
   <i name="PARAM2">      1.00000000</i>
   <i name="PARAM3">      0.00000000</i>
  </separator>
  <separator name="model GW" >
   <i type="int" name="MODEL_GW">     0</i>
   <i name="MODEL_EPS0">      6.22874480</i>
   <i name="MODEL_ALPHA">      1.00000000</i>
  </separator>
  <separator name="linear response parameters" >
   <i type="logical" name="LEPSILON"> F  </i>
   <i type="logical" name="LRPA"> F  </i>
   <i type="logical" name="LNABLA"> F  </i>
   <i type="logical" name="LVEL"> F  </i>
   <i type="int" name="KINTER">     0</i>
   <i name="CSHIFT">      0.10000000</i>
   <i name="OMEGAMAX">     -1.00000000</i>
   <i name="DEG_THRESHOLD">      0.00200000</i>
   <i name="RTIME">     -0.10000000</i>
   <i name="WPLASMAI">      0.00000000</i>
   <v name="DFIELD">      0.00000000      0.00000000      0.00000000</v>
   <v name="WPLASMA">      0.00000000      0.00000000      0.00000000      0.00000000      0.00000000      0.00000000      0.00000000      0.00000000      0.00000000</v>
  </separator>
  <separator name="orbital magnetization" >
   <i type="logical" name="NUCIND"> F  </i>
   <v name="MAGPOS">      0.00000000      0.00000000      0.00000000</v>
   <i type="logical" name="LNICSALL"> T  </i>
   <i type="logical" name="ORBITALMAG"> F  </i>
   <i type="logical" name="LMAGBLOCH"> F  </i>
   <i type="logical" name="LCHIMAG"> F  </i>
   <i type="logical" name="LGAUGE"> T  </i>
   <i type="int" name="MAGATOM">     0</i>
   <v name="MAGDIPOL">      0.00000000      0.00000000      0.00000000</v>
   <v name="AVECCONST">      0.00000000      0.00000000      0.00000000</v>
  </separator>
  <separator name="response functions" >
   <i type="logical" name="LFINITE_TEMPERATURE"> F  </i>
   <i type="logical" name="LADDER"> F  </i>
   <i type="logical" name="LRPAFORCE"> F  </i>
   <i type="logical" name="LFXC"> F  </i>
   <i type="logical" name="LHARTREE"> T  </i>
   <i type="int" name="IBSE">     0</i>
   <v type="int" name="KPOINT">    -1     0     0     0</v>
   <i type="logical" name="LTCTC"> F  </i>
   <i type="logical" name="LTCTE"> F  </i>
   <i type="logical" name="LTETE"> F  </i>
   <i type="logical" name="LTRIPLET"> F  </i>
   <i type="logical" name="LFXCEPS"> F  </i>
   <i type="logical" name="LFXHEG"> F  </i>
   <i type="int" name="NATURALO">     2</i>
   <i type="logical" name="LHOLEGF"> F  </i>
   <i type="logical" name="L2ORDER"> F  </i>
   <i type="logical" name="LDMP1"> F  </i>
   <i type="logical" name="LMP2LT"> F  </i>
   <i type="logical" name="LSMP2LT"> F  </i>
   <i type="logical" name="LGWLF"> F  </i>
   <i name="ENCUTGW">     -2.00000000</i>
   <i name="ENCUTGWSOFT">     -2.00000000</i>
   <i name="ENCUTLF">     -1.00000000</i>
   <i type="logical" name="LESF_SPLINES"> F  </i>
   <i type="int" name="LMAXMP2">    -1</i>
   <i name="SCISSOR">      0.00000000</i>
   <i type="int" name="NOMEGA">     0</i>
   <i type="int" name="NOMEGAR">     0</i>
   <i type="int" name="NBANDSGW">    -1</i>
   <i type="int" name="NBANDSO">    -1</i>
   <i type="int" name="NBANDSV">    -1</i>
   <i type="int" name="NELM">     1</i>
   <i type="int" name="NELMHF">     1</i>
   <i type="int" name="DIM">     3</i>
   <i type="int" name="IESPILON">     4</i>
   <i type="int" name="ANTIRES">     0</i>
   <i name="OMEGAMAX">    -30.00000000</i>
   <i name="OMEGAMIN">    -30.00000000</i>
   <i name="OMEGATL">   -200.00000000</i>
   <i type="int" name="OMEGAGRID">     0</i>
   <i name="CSHIFT">     -0.10000000</i>
   <i type="logical" name="LSELFENERGY"> F  </i>
   <i type="logical" name="LSPECTRAL"> F  </i>
   <i type="logical" name="LSPECTRALGW"> F  </i>
   <i type="logical" name="LSINGLES"> F  </i>
   <i type="logical" name="LFERMIGW"> F  </i>
   <i type="logical" name="ODDONLYGW"> F  </i>
   <i type="logical" name="EVENONLYGW"> F  </i>
   <i type="int" name="NKREDLFX">     1</i>
   <i type="int" name="NKREDLFY">     1</i>
   <i type="int" name="NKREDLFZ">     1</i>
   <i type="int" name="MAXMEM">  2800</i>
   <i type="int" name="TELESCOPE">     0</i>
   <i type="int" name="NTAUPAR">    -1</i>
   <i type="int" name="NOMEGAPAR">    -1</i>
   <i name="DAMP_NEWTON">      0.80000001</i>
   <i name="LAMBDA">      1.00000000</i>
  </separator>
  <separator name="External order field" >
   <i name="OFIELD_KAPPA">      0.00000000</i>
   <v name="OFIELD_K">      0.00000000      0.00000000      0.00000000</v>
   <i name="OFIELD_Q6_NEAR">      0.00000000</i>
   <i name="OFIELD_Q6_FAR">      0.00000000</i>
   <i name="OFIELD_A">      0.00000000</i>
  </separator>
 </parameters>
 <atominfo>
  <atoms>       6 </atoms>
  <types>       2 </types>
  <array name="atoms" >
   <dimension dim="1">ion</dimension>
   <field type="string">element</field>
   <field type="int">atomtype</field>
   <set>
    <rc><c>Ti</c><c>   1</c></rc>
    <rc><c>Ti</c><c>   1</c></rc>
    <rc><c>O </c><c>   2</c></rc>
    <rc><c>O </c><c>   2</c></rc>
    <rc><c>O </c><c>   2</c></rc>
    <rc><c>O </c><c>   2</c></rc>
   </set>
  </array>
  <array name="atomtypes" >
   <dimension dim="1">type</dimension>
   <field type="int">atomspertype</field>
   <field type="string">element</field>
   <field>mass</field>
   <field>valence</field>
   <field type="string">pseudopotential</field>
   <set>
    <rc><c>   2</c><c>Ti</c><c>     47.88000000</c><c>     10.00000000</c><c>  PAW_PBE Ti_pv 07Sep2000               </c></rc>
    <rc><c>   4</c><c>O </c><c>     16.00000000</c><c>      6.00000000</c><c>  PAW_PBE O 08Apr2002                   </c></rc>
   </set>
  </array>
 </atominfo>
 <structure name="initialpos" >
  <crystal>
   <varray name="basis" >
    <v>       4.60094756      -0.00000000       0.00000000 </v>
    <v>       0.00000000       4.60094756       0.00000000 </v>
    <v>      -0.00000000      -0.00000000       2.94242885 </v>
   </varray>
   <i name="volume">     62.28744797 </i>
   <varray name="rec_basis" >
    <v>       0.21734653      -0.00000000       0.00000000 </v>
    <v>       0.00000000       0.21734653       0.00000000 </v>
    <v>      -0.00000000      -0.00000000       0.33985529 </v>
   </varray>
  </crystal>
  <varray name="positions" >
   <v>       0.50000000       0.50000000       0.50000000 </v>
   <v>       0.00000000       0.00000000       0.00000000 </v>
   <v>       0.19567008       0.80432992       0.50000000 </v>
   <v>       0.80432992       0.19567008       0.50000000 </v>
   <v>       0.30432992       0.30432992       0.00000000 </v>
   <v>       0.69567008       0.69567008       0.00000000 </v>
  </varray>
 </structure>
 <calculation>
  <scstep>
   <time name="total">    4.30    4.40</time>
   <energy>
    <i name="alphaZ">    219.50783828 </i>
    <i name="ewald">  -2936.72308892 </i>
    <i name="hartreedc">   -862.50112224 </i>
    <i name="XCdc">    186.29543585 </i>
    <i name="pawpsdc">   4935.12184278 </i>
    <i name="pawaedc">  -4951.05196594 </i>
    <i name="eentropy">     -0.00071510 </i>
    <i name="bandstr">    -25.95569343 </i>
    <i name="atom">   3805.83765485 </i>
    <i name="e_fr_energy">    370.53018614 </i>
    <i name="e_wo_entrp">    370.53090124 </i>
    <i name="e_0_energy">    370.53054369 </i>
   </energy>
  </scstep>
  <scstep>
   <time name="total">    4.22    4.24</time>
   <energy>
    <i name="e_fr_energy">    -29.74131204 </i>
    <i name="e_wo_entrp">    -29.74131204 </i>
    <i name="e_0_energy">    -29.74131204 </i>
   </energy>
  </scstep>
  <scstep>
   <time name="total">    5.13    5.15</time>
   <energy>
    <i name="e_fr_energy">    -55.75276821 </i>
    <i name="e_wo_entrp">    -55.75276821 </i>
    <i name="e_0_energy">    -55.75276821 </i>
   </energy>
  </scstep>
  <scstep>
   <time name="total">    4.93    4.93</time>
   <energy>
    <i name="e_fr_energy">    -55.88763146 </i>
    <i name="e_wo_entrp">    -55.88763146 </i>
    <i name="e_0_energy">    -55.88763146 </i>
   </energy>
  </scstep>
  <scstep>
   <time name="total">    4.65    4.67</time>
   <energy>
    <i name="e_fr_energy">    -55.88782260 </i>
    <i name="e_wo_entrp">    -55.88782260 </i>
    <i name="e_0_energy">    -55.88782260 </i>
   </energy>
  </scstep>
  <scstep>
   <time name="total">    4.89    4.91</time>
   <energy>
    <i name="alphaZ">    219.50783828 </i>
    <i name="ewald">  -2936.72308892 </i>
    <i name="hartreedc">   -862.50112224 </i>
    <i name="XCdc">    186.29543585 </i>
    <i name="pawpsdc">   4935.12184278 </i>
    <i name="pawaedc">  -4951.05196594 </i>
    <i name="eentropy">     -0.00000000 </i>
    <i name="bandstr">   -452.37441726 </i>
    <i name="atom">   3805.83765485 </i>
    <i name="e_fr_energy">    -55.88782260 </i>
    <i name="e_wo_entrp">    -55.88782260 </i>
    <i name="e_0_energy">    -55.88782260 </i>
   </energy>
  </scstep>
  <structure>
   <crystal>
    <varray name="basis" >
     <v>       4.60094756      -0.00000000       0.00000000 </v>
     <v>       0.00000000       4.60094756       0.00000000 </v>
     <v>      -0.00000000      -0.00000000       2.94242885 </v>
    </varray>
    <i name="volume">     62.28744797 </i>
    <varray name="rec_basis" >
     <v>       0.21734653      -0.00000000       0.00000000 </v>
     <v>       0.00000000       0.21734653       0.00000000 </v>
     <v>      -0.00000000      -0.00000000       0.33985529 </v>
    </varray>
   </crystal>
   <varray name="positions" >
    <v>       0.50000000       0.50000000       0.50000000 </v>
    <v>       0.00000000       0.00000000       0.00000000 </v>
    <v>       0.19567008       0.80432992       0.50000000 </v>
    <v>       0.80432992       0.19567008       0.50000000 </v>
    <v>       0.30432992       0.30432992       0.00000000 </v>
    <v>       0.69567008       0.69567008       0.00000000 </v>
   </varray>
  </structure>
  <varray name="forces" >
   <v>      -0.00000000       0.00000000       0.00000000 </v>
   <v>      -0.00000000       0.00000000       0.00000000 </v>
   <v>       0.00636927      -0.00636927      -0.00000000 </v>
   <v>      -0.00636927       0.00636927       0.00000000 </v>
   <v>      -0.00636927      -0.00636927      -0.00000000 </v>
   <v>       0.00636927       0.00636927       0.00000000 </v>
  </varray>
  <varray name="stress" >
   <v>      -1.55528572       0.00000000       0.00000000 </v>
   <v>       0.00000000      -1.55528572       0.00000000 </v>
   <v>       0.00000000       0.00000000       1.94933696 </v>
  </varray>
  <energy>
   <i name="e_fr_energy">    -55.88782260 </i>
   <i name="e_wo_entrp">    -55.88782260 </i>
   <i name="e_0_energy">    -55.88782260 </i>
  </energy>
  <time name="totalsc">   29.53   29.74</time>
  <eigenvalues>
   <array>
    <dimension dim="1">band</dimension>
    <dimension dim="2">kpoint</dimension>
    <dimension dim="3">spin</dimension>
    <field>eigene</field>
    <field>occ</field>
    <set>
     <set comment="spin 1">
      <set comment="kpoint 1">
       <r>  -29.7174    1.0000 </r>
       <r>  -29.7174    1.0000 </r>
       <r>  -29.5487    1.0000 </r>
       <r>  -29.5487    1.0000 </r>
       <r>  -29.5083    1.0000 </r>
       <r>  -29.4744    1.0000 </r>
       <r>  -14.7936    1.0000 </r>
       <r>  -13.5702    1.0000 </r>
       <r>  -12.8051    1.0000 </r>
       <r>  -12.8051    1.0000 </r>
       <r>   -2.4643    1.0000 </r>
       <r>   -2.0142    1.0000 </r>
       <r>   -1.6256    1.0000 </r>
       <r>   -0.4368    1.0000 </r>
       <r>   -0.4368    1.0000 </r>
       <r>    0.7899    1.0000 </r>
       <r>    0.7899    1.0000 </r>
       <r>    1.4426    1.0000 </r>
       <r>    2.7314    1.0000 </r>
       <r>    2.9569    1.0000 </r>
       <r>    2.9569    1.0000 </r>
       <r>    3.3891    1.0000 </r>
       <r>    5.1956    0.0000 </r>
       <r>    5.4707    0.0000 </r>
       <r>    5.7706    0.0000 </r>
       <r>    5.8634    0.0000 </r>
       <r>    5.8634    0.0000 </r>
       <r>    7.7836    0.0000 </r>
       <r>    7.9798    0.0000 </r>
       <r>   10.0256    0.0000 </r>
       <r>   10.0256    0.0000 </r>
       <r>   11.0076    0.0000 </r>
       <r>   11.1334    0.0000 </r>
       <r>   14.9251    0.0000 </r>
       <r>   14.9251    0.0000 </r>
       <r>   17.7035    0.0000 </r>
       <r>   18.9228    0.0000 </r>
       <r>   19.6828    0.0000 </r>
       <r>   21.4402    0.0000 </r>
       <r>   22.7077    0.0000 </r>
       <r>   22.7077    0.0000 </r>
       <r>   22.8335    0.0000 </r>
       <r>   24.9120    0.0000 </r>
       <r>   25.2449    0.0000 </r>
       <r>   25.2451    0.0000 </r>
       <r>   26.4155    0.0000 </r>
       <r>   27.4371    0.0000 </r>
       <r>   27.4371    0.0000 </r>
       <r>   28.3356    0.0000 </r>
       <r>   29.0172    0.0000 </r>
       <r>   29.0172    0.0000 </r>
       <r>   29.1541    0.0000 </r>
       <r>   29.6641    0.0000 </r>
       <r>   29.6641    0.0000 </r>
       <r>   30.1654    0.0000 </r>
       <r>   32.1814    0.0000 </r>
       <r>   34.7633    0.0000 </r>
       <r>   35.4250    0.0000 </r>
       <r>   35.7950    0.0000 </r>
       <r>   35.7950    0.0000 </r>
       <r>   35.9307    0.0000 </r>
       <r>   37.4244    0.0000 </r>
       <r>   37.5460    0.0000 </r>
       <r>   37.5460    0.0000 </r>
       <r>   39.3142    0.0000 </r>
       <r>   40.4585    0.0000 </r>
       <r>   40.4585    0.0000 </r>
       <r>   40.9066    0.0000 </r>
       <r>   43.0628    0.0000 </r>
       <r>   43.6137    0.0000 </r>
       <r>   43.6137    0.0000 </r>
       <r>   44.2730    0.0000 </r>
       <r>   44.6464    0.0000 </r>
       <r>   44.6481    0.0000 </r>
       <r>   46.2236    0.0000 </r>
       <r>   46.2236    0.0000 </r>
       <r>   46.9845    0.0000 </r>
       <r>   47.1168    0.0000 </r>
       <r>   47.1168    0.0000 </r>
       <r>   47.5669    0.0000 </r>
       <r>   49.7935    0.0000 </r>
       <r>   50.0161    0.0000 </r>
       <r>   51.7887    0.0000 </r>
       <r>   52.9722    0.0000 </r>
       <r>   52.9722    0.0000 </r>
       <r>   53.4525    0.0000 </r>
       <r>   55.2129    0.0000 </r>
       <r>   55.6959    0.0000 </r>
       <r>   55.6970    0.0000 </r>
       <r>   56.2082    0.0000 </r>
       <r>   56.2084    0.0000 </r>
       <r>   56.8417    0.0000 </r>
       <r>   57.2986    0.0000 </r>
       <r>   57.3086    0.0000 </r>
       <r>   57.3752    0.0000 </r>
       <r>   58.3082    0.0000 </r>
      </set>
      <set comment="kpoint 2">
       <r>  -29.7084    1.0000 </r>
       <r>  -29.7076    1.0000 </r>
       <r>  -29.5597    1.0000 </r>
       <r>  -29.5588    1.0000 </r>
       <r>  -29.5061    1.0000 </r>
       <r>  -29.4767    1.0000 </r>
       <r>  -14.6923    1.0000 </r>
       <r>  -13.5776    1.0000 </r>
       <r>  -12.9048    1.0000 </r>
       <r>  -12.8441    1.0000 </r>
       <r>   -2.2825    1.0000 </r>
       <r>   -1.9043    1.0000 </r>
       <r>   -1.4414    1.0000 </r>
       <r>   -0.4254    1.0000 </r>
       <r>   -0.4174    1.0000 </r>
       <r>    0.6185    1.0000 </r>
       <r>    0.7459    1.0000 </r>
       <r>    1.4550    1.0000 </r>
       <r>    2.4458    1.0000 </r>
       <r>    2.5495    1.0000 </r>
       <r>    2.7284    1.0000 </r>
       <r>    3.2922    1.0000 </r>
       <r>    5.3521    0.0000 </r>
       <r>    5.6719    0.0000 </r>
       <r>    5.9750    0.0000 </r>
       <r>    5.9763    0.0000 </r>
       <r>    6.0210    0.0000 </r>
       <r>    7.8303    0.0000 </r>
       <r>    8.0014    0.0000 </r>
       <r>    9.9313    0.0000 </r>
       <r>    9.9516    0.0000 </r>
       <r>   10.8483    0.0000 </r>
       <r>   11.4606    0.0000 </r>
       <r>   14.8283    0.0000 </r>
       <r>   15.1336    0.0000 </r>
       <r>   17.7462    0.0000 </r>
       <r>   18.7289    0.0000 </r>
       <r>   19.5551    0.0000 </r>
       <r>   21.3177    0.0000 </r>
       <r>   22.6421    0.0000 </r>
       <r>   23.0890    0.0000 </r>
       <r>   23.1111    0.0000 </r>
       <r>   25.1716    0.0000 </r>
       <r>   25.2446    0.0000 </r>
       <r>   25.2451    0.0000 </r>
       <r>   25.9906    0.0000 </r>
       <r>   26.2718    0.0000 </r>
       <r>   26.5161    0.0000 </r>
       <r>   27.5074    0.0000 </r>
       <r>   29.0904    0.0000 </r>
       <r>   29.1671    0.0000 </r>
       <r>   29.3225    0.0000 </r>
       <r>   29.8262    0.0000 </r>
       <r>   30.0941    0.0000 </r>
       <r>   32.1876    0.0000 </r>
       <r>   32.3979    0.0000 </r>
       <r>   34.2365    0.0000 </r>
       <r>   35.1072    0.0000 </r>
       <r>   35.6373    0.0000 </r>
       <r>   35.8409    0.0000 </r>
       <r>   36.4346    0.0000 </r>
       <r>   37.2762    0.0000 </r>
       <r>   37.7827    0.0000 </r>
       <r>   38.6536    0.0000 </r>
       <r>   39.2969    0.0000 </r>
       <r>   40.5858    0.0000 </r>
       <r>   40.7210    0.0000 </r>
       <r>   41.3821    0.0000 </r>
       <r>   42.8425    0.0000 </r>
       <r>   42.8621    0.0000 </r>
       <r>   43.0253    0.0000 </r>
       <r>   43.8331    0.0000 </r>
       <r>   44.2836    0.0000 </r>
       <r>   44.6552    0.0000 </r>
       <r>   45.8521    0.0000 </r>
       <r>   45.9792    0.0000 </r>
       <r>   46.9709    0.0000 </r>
       <r>   47.2150    0.0000 </r>
       <r>   48.1231    0.0000 </r>
       <r>   48.2095    0.0000 </r>
       <r>   49.4258    0.0000 </r>
       <r>   50.8050    0.0000 </r>
       <r>   51.9238    0.0000 </r>
       <r>   52.3775    0.0000 </r>
       <r>   53.3643    0.0000 </r>
       <r>   53.5436    0.0000 </r>
       <r>   53.5566    0.0000 </r>
       <r>   54.2680    0.0000 </r>
       <r>   55.2940    0.0000 </r>
       <r>   55.4315    0.0000 </r>
       <r>   56.1658    0.0000 </r>
       <r>   56.7837    0.0000 </r>
       <r>   56.8173    0.0000 </r>
       <r>   56.8504    0.0000 </r>
       <r>   58.5779    0.0000 </r>
       <r>   58.9452    0.0000 </r>
      </set>
      <set comment="kpoint 3">
       <r>  -29.6844    1.0000 </r>
       <r>  -29.6821    1.0000 </r>
       <r>  -29.5874    1.0000 </r>
       <r>  -29.5850    1.0000 </r>
       <r>  -29.4998    1.0000 </r>
       <r>  -29.4829    1.0000 </r>
       <r>  -14.4114    1.0000 </r>
       <r>  -13.6896    1.0000 </r>
       <r>  -13.0606    1.0000 </r>
       <r>  -12.9419    1.0000 </r>
       <r>   -1.8915    1.0000 </r>
       <r>   -1.6645    1.0000 </r>
       <r>   -0.8442    1.0000 </r>
       <r>   -0.3978    1.0000 </r>
       <r>   -0.3830    1.0000 </r>
       <r>    0.2897    1.0000 </r>
       <r>    0.5310    1.0000 </r>
       <r>    1.3620    1.0000 </r>
       <r>    1.5405    1.0000 </r>
       <r>    2.1550    1.0000 </r>
       <r>    2.5002    1.0000 </r>
       <r>    2.9884    1.0000 </r>
       <r>    5.6513    0.0000 </r>
       <r>    5.8979    0.0000 </r>
       <r>    6.2249    0.0000 </r>
       <r>    6.3018    0.0000 </r>
       <r>    6.4284    0.0000 </r>
       <r>    7.4546    0.0000 </r>
       <r>    8.6292    0.0000 </r>
       <r>    9.7435    0.0000 </r>
       <r>    9.7823    0.0000 </r>
       <r>   10.2977    0.0000 </r>
       <r>   12.3521    0.0000 </r>
       <r>   14.3447    0.0000 </r>
       <r>   15.7654    0.0000 </r>
       <r>   17.6081    0.0000 </r>
       <r>   18.5732    0.0000 </r>
       <r>   19.3438    0.0000 </r>
       <r>   21.2105    0.0000 </r>
       <r>   22.6890    0.0000 </r>
       <r>   22.7952    0.0000 </r>
       <r>   23.8067    0.0000 </r>
       <r>   24.4882    0.0000 </r>
       <r>   25.2446    0.0000 </r>
       <r>   25.2451    0.0000 </r>
       <r>   25.7500    0.0000 </r>
       <r>   25.8743    0.0000 </r>
       <r>   25.8774    0.0000 </r>
       <r>   27.5904    0.0000 </r>
       <r>   27.9471    0.0000 </r>
       <r>   29.2788    0.0000 </r>
       <r>   29.2915    0.0000 </r>
       <r>   30.3070    0.0000 </r>
       <r>   30.7085    0.0000 </r>
       <r>   32.2243    0.0000 </r>
       <r>   32.4358    0.0000 </r>
       <r>   34.9539    0.0000 </r>
       <r>   35.0802    0.0000 </r>
       <r>   36.0391    0.0000 </r>
       <r>   36.8238    0.0000 </r>
       <r>   36.8464    0.0000 </r>
       <r>   37.7132    0.0000 </r>
       <r>   38.1625    0.0000 </r>
       <r>   39.8839    0.0000 </r>
       <r>   40.2870    0.0000 </r>
       <r>   40.6361    0.0000 </r>
       <r>   40.7680    0.0000 </r>
       <r>   41.4904    0.0000 </r>
       <r>   41.8352    0.0000 </r>
       <r>   42.0678    0.0000 </r>
       <r>   43.2713    0.0000 </r>
       <r>   44.0451    0.0000 </r>
       <r>   44.1473    0.0000 </r>
       <r>   44.1719    0.0000 </r>
       <r>   45.2330    0.0000 </r>
       <r>   45.7023    0.0000 </r>
       <r>   45.7785    0.0000 </r>
       <r>   46.5088    0.0000 </r>
       <r>   48.2809    0.0000 </r>
       <r>   48.4883    0.0000 </r>
       <r>   49.8378    0.0000 </r>
       <r>   50.0012    0.0000 </r>
       <r>   50.5855    0.0000 </r>
       <r>   52.4412    0.0000 </r>
       <r>   52.5484    0.0000 </r>
       <r>   53.2017    0.0000 </r>
       <r>   54.5281    0.0000 </r>
       <r>   54.7325    0.0000 </r>
       <r>   54.8067    0.0000 </r>
       <r>   55.1189    0.0000 </r>
       <r>   55.7007    0.0000 </r>
       <r>   56.6242    0.0000 </r>
       <r>   57.4011    0.0000 </r>
       <r>   57.9852    0.0000 </r>
       <r>   58.5924    0.0000 </r>
       <r>   59.1304    0.0000 </r>
      </set>
      <set comment="kpoint 4">
       <r>  -29.6630    1.0000 </r>
       <r>  -29.6630    1.0000 </r>
       <r>  -29.6076    1.0000 </r>
       <r>  -29.6076    1.0000 </r>
       <r>  -29.4913    1.0000 </r>
       <r>  -29.4913    1.0000 </r>
       <r>  -14.0248    1.0000 </r>
       <r>  -14.0248    1.0000 </r>
       <r>  -13.0476    1.0000 </r>
       <r>  -13.0476    1.0000 </r>
       <r>   -1.6011    1.0000 </r>
       <r>   -1.6011    1.0000 </r>
       <r>   -0.3750    1.0000 </r>
       <r>   -0.3750    1.0000 </r>
       <r>    0.0877    1.0000 </r>
       <r>    0.0877    1.0000 </r>
       <r>    0.3071    1.0000 </r>
       <r>    0.3071    1.0000 </r>
       <r>    1.7763    1.0000 </r>
       <r>    1.7763    1.0000 </r>
       <r>    2.6429    1.0000 </r>
       <r>    2.6429    1.0000 </r>
       <r>    5.8752    0.0000 </r>
       <r>    5.8752    0.0000 </r>
       <r>    6.3971    0.0000 </r>
       <r>    6.3971    0.0000 </r>
       <r>    6.9536    0.0000 </r>
       <r>    6.9536    0.0000 </r>
       <r>    9.4900    0.0000 </r>
       <r>    9.4900    0.0000 </r>
       <r>    9.6670    0.0000 </r>
       <r>    9.6670    0.0000 </r>
       <r>   13.4240    0.0000 </r>
       <r>   13.4240    0.0000 </r>
       <r>   16.7169    0.0000 </r>
       <r>   16.7169    0.0000 </r>
       <r>   19.0308    0.0000 </r>
       <r>   19.0308    0.0000 </r>
       <r>   21.6465    0.0000 </r>
       <r>   21.6465    0.0000 </r>
       <r>   23.2406    0.0000 </r>
       <r>   23.2406    0.0000 </r>
       <r>   24.8129    0.0000 </r>
       <r>   24.8129    0.0000 </r>
       <r>   25.2450    0.0000 </r>
       <r>   25.2450    0.0000 </r>
       <r>   26.8402    0.0000 </r>
       <r>   26.8402    0.0000 </r>
       <r>   27.1188    0.0000 </r>
       <r>   27.1188    0.0000 </r>
       <r>   29.1611    0.0000 </r>
       <r>   29.1611    0.0000 </r>
       <r>   31.1360    0.0000 </r>
       <r>   31.1360    0.0000 </r>
       <r>   31.3038    0.0000 </r>
       <r>   31.3038    0.0000 </r>
       <r>   36.0497    0.0000 </r>
       <r>   36.0497    0.0000 </r>
       <r>   36.4647    0.0000 </r>
       <r>   36.4647    0.0000 </r>
       <r>   37.1121    0.0000 </r>
       <r>   37.1121    0.0000 </r>
       <r>   39.6171    0.0000 </r>
       <r>   39.6171    0.0000 </r>
       <r>   41.1443    0.0000 </r>
       <r>   41.1443    0.0000 </r>
       <r>   41.3921    0.0000 </r>
       <r>   41.3921    0.0000 </r>
       <r>   42.5363    0.0000 </r>
       <r>   42.5363    0.0000 </r>
       <r>   42.5479    0.0000 </r>
       <r>   42.5479    0.0000 </r>
       <r>   44.2297    0.0000 </r>
       <r>   44.2297    0.0000 </r>
       <r>   44.6023    0.0000 </r>
       <r>   44.6023    0.0000 </r>
       <r>   45.7265    0.0000 </r>
       <r>   45.7265    0.0000 </r>
       <r>   47.5967    0.0000 </r>
       <r>   47.5967    0.0000 </r>
       <r>   50.4120    0.0000 </r>
       <r>   50.4120    0.0000 </r>
       <r>   50.6620    0.0000 </r>
       <r>   50.6620    0.0000 </r>
       <r>   54.0184    0.0000 </r>
       <r>   54.0185    0.0000 </r>
       <r>   54.5444    0.0000 </r>
       <r>   54.5444    0.0000 </r>
       <r>   55.8288    0.0000 </r>
       <r>   55.8289    0.0000 </r>
       <r>   56.1563    0.0000 </r>
       <r>   56.1564    0.0000 </r>
       <r>   56.2294    0.0000 </r>
       <r>   56.2297    0.0000 </r>
       <r>   59.5638    0.0000 </r>
       <r>   59.5697    0.0000 </r>
      </set>
      <set comment="kpoint 5">
       <r>  -29.7206    1.0000 </r>
       <r>  -29.6807    1.0000 </r>
       <r>  -29.5881    1.0000 </r>
       <r>  -29.5467    1.0000 </r>
       <r>  -29.5041    1.0000 </r>
       <r>  -29.4786    1.0000 </r>
       <r>  -14.6067    1.0000 </r>
       <r>  -13.5986    1.0000 </r>
       <r>  -13.0003    1.0000 </r>
       <r>  -12.8401    1.0000 </r>
       <r>   -2.2767    1.0000 </r>
       <r>   -1.6982    1.0000 </r>
       <r>   -1.2797    1.0000 </r>
       <r>   -0.4545    1.0000 </r>
       <r>   -0.3801    1.0000 </r>
       <r>    0.4019    1.0000 </r>
       <r>    0.8422    1.0000 </r>
       <r>    1.4811    1.0000 </r>
       <r>    2.1008    1.0000 </r>
       <r>    2.4532    1.0000 </r>
       <r>    2.5895    1.0000 </r>
       <r>    3.2229    1.0000 </r>
       <r>    5.2687    0.0000 </r>
       <r>    5.8416    0.0000 </r>
       <r>    5.8685    0.0000 </r>
       <r>    6.1693    0.0000 </r>
       <r>    6.2654    0.0000 </r>
       <r>    7.7372    0.0000 </r>
       <r>    8.1495    0.0000 </r>
       <r>    9.7630    0.0000 </r>
       <r>   10.0228    0.0000 </r>
       <r>   10.6586    0.0000 </r>
       <r>   11.8164    0.0000 </r>
       <r>   14.9771    0.0000 </r>
       <r>   15.0964    0.0000 </r>
       <r>   17.7855    0.0000 </r>
       <r>   18.5019    0.0000 </r>
       <r>   19.3509    0.0000 </r>
       <r>   21.2751    0.0000 </r>
       <r>   22.5694    0.0000 </r>
       <r>   23.3371    0.0000 </r>
       <r>   23.5668    0.0000 </r>
       <r>   25.2445    0.0000 </r>
       <r>   25.2451    0.0000 </r>
       <r>   25.3862    0.0000 </r>
       <r>   25.7562    0.0000 </r>
       <r>   26.1771    0.0000 </r>
       <r>   26.1826    0.0000 </r>
       <r>   26.3030    0.0000 </r>
       <r>   28.2416    0.0000 </r>
       <r>   28.8003    0.0000 </r>
       <r>   29.7325    0.0000 </r>
       <r>   30.6252    0.0000 </r>
       <r>   30.9155    0.0000 </r>
       <r>   32.6470    0.0000 </r>
       <r>   33.0410    0.0000 </r>
       <r>   33.5813    0.0000 </r>
       <r>   34.9027    0.0000 </r>
       <r>   35.3535    0.0000 </r>
       <r>   36.5130    0.0000 </r>
       <r>   36.6346    0.0000 </r>
       <r>   37.2212    0.0000 </r>
       <r>   38.2554    0.0000 </r>
       <r>   38.7938    0.0000 </r>
       <r>   39.2084    0.0000 </r>
       <r>   40.6668    0.0000 </r>
       <r>   41.0200    0.0000 </r>
       <r>   41.5754    0.0000 </r>
       <r>   42.1317    0.0000 </r>
       <r>   42.5652    0.0000 </r>
       <r>   43.3343    0.0000 </r>
       <r>   43.6084    0.0000 </r>
       <r>   44.3347    0.0000 </r>
       <r>   44.9184    0.0000 </r>
       <r>   45.0814    0.0000 </r>
       <r>   46.3887    0.0000 </r>
       <r>   47.3221    0.0000 </r>
       <r>   47.3834    0.0000 </r>
       <r>   48.2833    0.0000 </r>
       <r>   48.3879    0.0000 </r>
       <r>   48.9606    0.0000 </r>
       <r>   51.2801    0.0000 </r>
       <r>   51.4989    0.0000 </r>
       <r>   51.9826    0.0000 </r>
       <r>   52.6861    0.0000 </r>
       <r>   53.2959    0.0000 </r>
       <r>   53.5642    0.0000 </r>
       <r>   53.9350    0.0000 </r>
       <r>   54.6082    0.0000 </r>
       <r>   55.4857    0.0000 </r>
       <r>   55.5121    0.0000 </r>
       <r>   56.1733    0.0000 </r>
       <r>   57.1250    0.0000 </r>
       <r>   57.3778    0.0000 </r>
       <r>   58.3880    0.0000 </r>
       <r>   58.9083    0.0000 </r>
      </set>
      <set comment="kpoint 6">
       <r>  -29.7134    1.0000 </r>
       <r>  -29.6634    1.0000 </r>
       <r>  -29.6072    1.0000 </r>
       <r>  -29.5557    1.0000 </r>
       <r>  -29.4987    1.0000 </r>
       <r>  -29.4840    1.0000 </r>
       <r>  -14.3705    1.0000 </r>
       <r>  -13.7417    1.0000 </r>
       <r>  -13.0777    1.0000 </r>
       <r>  -12.9113    1.0000 </r>
       <r>   -2.1060    1.0000 </r>
       <r>   -1.5443    1.0000 </r>
       <r>   -0.7574    1.0000 </r>
       <r>   -0.4494    1.0000 </r>
       <r>   -0.3744    1.0000 </r>
       <r>    0.2981    1.0000 </r>
       <r>    0.6978    1.0000 </r>
       <r>    1.4982    1.0000 </r>
       <r>    1.6041    1.0000 </r>
       <r>    2.1885    1.0000 </r>
       <r>    2.2846    1.0000 </r>
       <r>    2.8960    1.0000 </r>
       <r>    5.4464    0.0000 </r>
       <r>    5.9122    0.0000 </r>
       <r>    6.0020    0.0000 </r>
       <r>    6.4021    0.0000 </r>
       <r>    6.5790    0.0000 </r>
       <r>    7.4473    0.0000 </r>
       <r>    8.6619    0.0000 </r>
       <r>    9.6651    0.0000 </r>
       <r>    9.9385    0.0000 </r>
       <r>   10.1322    0.0000 </r>
       <r>   12.6667    0.0000 </r>
       <r>   14.5385    0.0000 </r>
       <r>   15.7120    0.0000 </r>
       <r>   17.6154    0.0000 </r>
       <r>   18.2787    0.0000 </r>
       <r>   19.0179    0.0000 </r>
       <r>   21.2516    0.0000 </r>
       <r>   22.3136    0.0000 </r>
       <r>   23.6729    0.0000 </r>
       <r>   24.0287    0.0000 </r>
       <r>   24.6895    0.0000 </r>
       <r>   25.2446    0.0000 </r>
       <r>   25.2450    0.0000 </r>
       <r>   25.6549    0.0000 </r>
       <r>   25.7864    0.0000 </r>
       <r>   25.9788    0.0000 </r>
       <r>   26.3733    0.0000 </r>
       <r>   27.8180    0.0000 </r>
       <r>   28.3138    0.0000 </r>
       <r>   30.0859    0.0000 </r>
       <r>   30.3351    0.0000 </r>
       <r>   31.7320    0.0000 </r>
       <r>   32.1202    0.0000 </r>
       <r>   33.0680    0.0000 </r>
       <r>   34.7478    0.0000 </r>
       <r>   35.0494    0.0000 </r>
       <r>   35.4627    0.0000 </r>
       <r>   36.2142    0.0000 </r>
       <r>   37.2271    0.0000 </r>
       <r>   38.0975    0.0000 </r>
       <r>   38.8392    0.0000 </r>
       <r>   39.2163    0.0000 </r>
       <r>   40.0885    0.0000 </r>
       <r>   40.3351    0.0000 </r>
       <r>   41.0376    0.0000 </r>
       <r>   41.4927    0.0000 </r>
       <r>   41.9450    0.0000 </r>
       <r>   43.0425    0.0000 </r>
       <r>   43.2391    0.0000 </r>
       <r>   43.6469    0.0000 </r>
       <r>   44.4333    0.0000 </r>
       <r>   44.6926    0.0000 </r>
       <r>   44.9464    0.0000 </r>
       <r>   46.0398    0.0000 </r>
       <r>   46.1240    0.0000 </r>
       <r>   47.0911    0.0000 </r>
       <r>   47.9082    0.0000 </r>
       <r>   48.4136    0.0000 </r>
       <r>   49.1074    0.0000 </r>
       <r>   50.2781    0.0000 </r>
       <r>   50.8612    0.0000 </r>
       <r>   51.9564    0.0000 </r>
       <r>   52.2061    0.0000 </r>
       <r>   52.6758    0.0000 </r>
       <r>   53.0888    0.0000 </r>
       <r>   53.7705    0.0000 </r>
       <r>   54.0995    0.0000 </r>
       <r>   55.4067    0.0000 </r>
       <r>   56.0178    0.0000 </r>
       <r>   57.1594    0.0000 </r>
       <r>   57.8043    0.0000 </r>
       <r>   58.1234    0.0000 </r>
       <r>   58.3569    0.0000 </r>
       <r>   59.5034    0.0000 </r>
      </set>
      <set comment="kpoint 7">
       <r>  -29.6885    1.0000 </r>
       <r>  -29.6885    1.0000 </r>
       <r>  -29.5822    1.0000 </r>
       <r>  -29.5822    1.0000 </r>
       <r>  -29.4913    1.0000 </r>
       <r>  -29.4913    1.0000 </r>
       <r>  -14.0446    1.0000 </r>
       <r>  -14.0446    1.0000 </r>
       <r>  -13.0196    1.0000 </r>
       <r>  -13.0196    1.0000 </r>
       <r>   -1.7811    1.0000 </r>
       <r>   -1.7811    1.0000 </r>
       <r>   -0.4106    1.0000 </r>
       <r>   -0.4106    1.0000 </r>
       <r>   -0.0215    1.0000 </r>
       <r>   -0.0215    1.0000 </r>
       <r>    0.8238    1.0000 </r>
       <r>    0.8238    1.0000 </r>
       <r>    1.8613    1.0000 </r>
       <r>    1.8613    1.0000 </r>
       <r>    2.4540    1.0000 </r>
       <r>    2.4540    1.0000 </r>
       <r>    5.7479    0.0000 </r>
       <r>    5.7479    0.0000 </r>
       <r>    6.2659    0.0000 </r>
       <r>    6.2659    0.0000 </r>
       <r>    7.0341    0.0000 </r>
       <r>    7.0341    0.0000 </r>
       <r>    9.4015    0.0000 </r>
       <r>    9.4015    0.0000 </r>
       <r>    9.7610    0.0000 </r>
       <r>    9.7610    0.0000 </r>
       <r>   13.6682    0.0000 </r>
       <r>   13.6682    0.0000 </r>
       <r>   16.6841    0.0000 </r>
       <r>   16.6841    0.0000 </r>
       <r>   18.6688    0.0000 </r>
       <r>   18.6688    0.0000 </r>
       <r>   21.6502    0.0000 </r>
       <r>   21.6502    0.0000 </r>
       <r>   23.7070    0.0000 </r>
       <r>   23.7070    0.0000 </r>
       <r>   24.9741    0.0000 </r>
       <r>   24.9741    0.0000 </r>
       <r>   25.2449    0.0000 </r>
       <r>   25.2449    0.0000 </r>
       <r>   26.3604    0.0000 </r>
       <r>   26.3604    0.0000 </r>
       <r>   26.8097    0.0000 </r>
       <r>   26.8097    0.0000 </r>
       <r>   29.1626    0.0000 </r>
       <r>   29.1626    0.0000 </r>
       <r>   30.8873    0.0000 </r>
       <r>   30.8873    0.0000 </r>
       <r>   32.3392    0.0000 </r>
       <r>   32.3392    0.0000 </r>
       <r>   35.7411    0.0000 </r>
       <r>   35.7411    0.0000 </r>
       <r>   36.1279    0.0000 </r>
       <r>   36.1279    0.0000 </r>
       <r>   36.9720    0.0000 </r>
       <r>   36.9720    0.0000 </r>
       <r>   39.9126    0.0000 </r>
       <r>   39.9126    0.0000 </r>
       <r>   40.6897    0.0000 </r>
       <r>   40.6897    0.0000 </r>
       <r>   41.4799    0.0000 </r>
       <r>   41.4799    0.0000 </r>
       <r>   42.3592    0.0000 </r>
       <r>   42.3592    0.0000 </r>
       <r>   43.7840    0.0000 </r>
       <r>   43.7840    0.0000 </r>
       <r>   44.4301    0.0000 </r>
       <r>   44.4301    0.0000 </r>
       <r>   44.8331    0.0000 </r>
       <r>   44.8331    0.0000 </r>
       <r>   45.6329    0.0000 </r>
       <r>   45.6330    0.0000 </r>
       <r>   47.5924    0.0000 </r>
       <r>   47.5924    0.0000 </r>
       <r>   50.2527    0.0000 </r>
       <r>   50.2527    0.0000 </r>
       <r>   51.1664    0.0000 </r>
       <r>   51.1664    0.0000 </r>
       <r>   52.2756    0.0000 </r>
       <r>   52.2756    0.0000 </r>
       <r>   53.0867    0.0000 </r>
       <r>   53.0867    0.0000 </r>
       <r>   55.5198    0.0000 </r>
       <r>   55.5199    0.0000 </r>
       <r>   56.8314    0.0000 </r>
       <r>   56.8318    0.0000 </r>
       <r>   58.1559    0.0000 </r>
       <r>   58.1594    0.0000 </r>
       <r>   59.3050    0.0000 </r>
       <r>   59.7676    0.0000 </r>
      </set>
      <set comment="kpoint 8">
       <r>  -29.7271    1.0000 </r>
       <r>  -29.6912    1.0000 </r>
       <r>  -29.5802    1.0000 </r>
       <r>  -29.5427    1.0000 </r>
       <r>  -29.4955    1.0000 </r>
       <r>  -29.4870    1.0000 </r>
       <r>  -14.2540    1.0000 </r>
       <r>  -13.8902    1.0000 </r>
       <r>  -13.0451    1.0000 </r>
       <r>  -12.9078    1.0000 </r>
       <r>   -2.2252    1.0000 </r>
       <r>   -1.7598    1.0000 </r>
       <r>   -0.4897    1.0000 </r>
       <r>   -0.4204    1.0000 </r>
       <r>   -0.3794    1.0000 </r>
       <r>    0.5037    1.0000 </r>
       <r>    1.0038    1.0000 </r>
       <r>    1.5644    1.0000 </r>
       <r>    1.7932    1.0000 </r>
       <r>    1.8591    1.0000 </r>
       <r>    2.1861    1.0000 </r>
       <r>    2.7031    1.0000 </r>
       <r>    5.2499    0.0000 </r>
       <r>    5.7497    0.0000 </r>
       <r>    5.8796    0.0000 </r>
       <r>    6.2701    0.0000 </r>
       <r>    6.8880    0.0000 </r>
       <r>    7.3682    0.0000 </r>
       <r>    8.8661    0.0000 </r>
       <r>    9.7248    0.0000 </r>
       <r>    9.7590    0.0000 </r>
       <r>   10.0173    0.0000 </r>
       <r>   13.3935    0.0000 </r>
       <r>   14.7555    0.0000 </r>
       <r>   15.7617    0.0000 </r>
       <r>   17.3587    0.0000 </r>
       <r>   17.9554    0.0000 </r>
       <r>   18.5186    0.0000 </r>
       <r>   21.3399    0.0000 </r>
       <r>   22.0719    0.0000 </r>
       <r>   24.4153    0.0000 </r>
       <r>   24.6274    0.0000 </r>
       <r>   24.8688    0.0000 </r>
       <r>   25.1030    0.0000 </r>
       <r>   25.1902    0.0000 </r>
       <r>   25.2451    0.0000 </r>
       <r>   25.2464    0.0000 </r>
       <r>   25.7605    0.0000 </r>
       <r>   26.2682    0.0000 </r>
       <r>   27.3513    0.0000 </r>
       <r>   28.4368    0.0000 </r>
       <r>   29.9274    0.0000 </r>
       <r>   30.7951    0.0000 </r>
       <r>   31.2604    0.0000 </r>
       <r>   32.8928    0.0000 </r>
       <r>   33.7299    0.0000 </r>
       <r>   34.5542    0.0000 </r>
       <r>   35.0913    0.0000 </r>
       <r>   35.4788    0.0000 </r>
       <r>   35.9963    0.0000 </r>
       <r>   36.4974    0.0000 </r>
       <r>   37.3995    0.0000 </r>
       <r>   39.5677    0.0000 </r>
       <r>   40.3493    0.0000 </r>
       <r>   40.4068    0.0000 </r>
       <r>   40.6708    0.0000 </r>
       <r>   41.3589    0.0000 </r>
       <r>   41.4823    0.0000 </r>
       <r>   41.8258    0.0000 </r>
       <r>   43.1770    0.0000 </r>
       <r>   44.0273    0.0000 </r>
       <r>   44.1020    0.0000 </r>
       <r>   44.5028    0.0000 </r>
       <r>   44.8026    0.0000 </r>
       <r>   45.4649    0.0000 </r>
       <r>   45.6926    0.0000 </r>
       <r>   46.6988    0.0000 </r>
       <r>   47.2379    0.0000 </r>
       <r>   47.3682    0.0000 </r>
       <r>   47.4163    0.0000 </r>
       <r>   48.2251    0.0000 </r>
       <r>   50.4652    0.0000 </r>
       <r>   50.4877    0.0000 </r>
       <r>   50.7446    0.0000 </r>
       <r>   51.6939    0.0000 </r>
       <r>   51.7734    0.0000 </r>
       <r>   52.7953    0.0000 </r>
       <r>   53.8698    0.0000 </r>
       <r>   54.2235    0.0000 </r>
       <r>   55.4511    0.0000 </r>
       <r>   55.5764    0.0000 </r>
       <r>   57.0564    0.0000 </r>
       <r>   57.9592    0.0000 </r>
       <r>   57.9895    0.0000 </r>
       <r>   58.6944    0.0000 </r>
       <r>   59.2297    0.0000 </r>
      </set>
      <set comment="kpoint 9">
       <r>  -29.7187    1.0000 </r>
       <r>  -29.7187    1.0000 </r>
       <r>  -29.5522    1.0000 </r>
       <r>  -29.5522    1.0000 </r>
       <r>  -29.4913    1.0000 </r>
       <r>  -29.4913    1.0000 </r>
       <r>  -14.0813    1.0000 </r>
       <r>  -14.0813    1.0000 </r>
       <r>  -12.9660    1.0000 </r>
       <r>  -12.9660    1.0000 </r>
       <r>   -2.0872    1.0000 </r>
       <r>   -2.0872    1.0000 </r>
       <r>   -0.4765    1.0000 </r>
       <r>   -0.4765    1.0000 </r>
       <r>    0.2142    1.0000 </r>
       <r>    0.2142    1.0000 </r>
       <r>    1.2842    1.0000 </r>
       <r>    1.2842    1.0000 </r>
       <r>    2.0336    1.0000 </r>
       <r>    2.0336    1.0000 </r>
       <r>    2.2104    1.0000 </r>
       <r>    2.2104    1.0000 </r>
       <r>    5.4318    0.0000 </r>
       <r>    5.4318    0.0000 </r>
       <r>    6.0112    0.0000 </r>
       <r>    6.0112    0.0000 </r>
       <r>    7.1737    0.0000 </r>
       <r>    7.1737    0.0000 </r>
       <r>    9.2564    0.0000 </r>
       <r>    9.2564    0.0000 </r>
       <r>    9.9341    0.0000 </r>
       <r>    9.9341    0.0000 </r>
       <r>   14.2064    0.0000 </r>
       <r>   14.2064    0.0000 </r>
       <r>   16.5158    0.0000 </r>
       <r>   16.5158    0.0000 </r>
       <r>   18.1623    0.0000 </r>
       <r>   18.1623    0.0000 </r>
       <r>   21.6716    0.0000 </r>
       <r>   21.6716    0.0000 </r>
       <r>   24.3471    0.0000 </r>
       <r>   24.3471    0.0000 </r>
       <r>   25.1858    0.0000 </r>
       <r>   25.1858    0.0000 </r>
       <r>   25.2468    0.0000 </r>
       <r>   25.2468    0.0000 </r>
       <r>   25.3522    0.0000 </r>
       <r>   25.3522    0.0000 </r>
       <r>   26.7300    0.0000 </r>
       <r>   26.7300    0.0000 </r>
       <r>   29.8643    0.0000 </r>
       <r>   29.8643    0.0000 </r>
       <r>   30.3625    0.0000 </r>
       <r>   30.3625    0.0000 </r>
       <r>   33.1895    0.0000 </r>
       <r>   33.1895    0.0000 </r>
       <r>   35.4705    0.0000 </r>
       <r>   35.4705    0.0000 </r>
       <r>   35.5504    0.0000 </r>
       <r>   35.5504    0.0000 </r>
       <r>   36.5224    0.0000 </r>
       <r>   36.5224    0.0000 </r>
       <r>   40.5951    0.0000 </r>
       <r>   40.5951    0.0000 </r>
       <r>   40.7311    0.0000 </r>
       <r>   40.7311    0.0000 </r>
       <r>   41.1873    0.0000 </r>
       <r>   41.1873    0.0000 </r>
       <r>   43.3370    0.0000 </r>
       <r>   43.3370    0.0000 </r>
       <r>   44.3314    0.0000 </r>
       <r>   44.3314    0.0000 </r>
       <r>   44.8853    0.0000 </r>
       <r>   44.8853    0.0000 </r>
       <r>   45.0422    0.0000 </r>
       <r>   45.0422    0.0000 </r>
       <r>   45.8887    0.0000 </r>
       <r>   45.8887    0.0000 </r>
       <r>   47.6259    0.0000 </r>
       <r>   47.6259    0.0000 </r>
       <r>   48.9664    0.0000 </r>
       <r>   48.9664    0.0000 </r>
       <r>   49.8594    0.0000 </r>
       <r>   49.8594    0.0000 </r>
       <r>   52.6788    0.0000 </r>
       <r>   52.6788    0.0000 </r>
       <r>   53.4950    0.0000 </r>
       <r>   53.4950    0.0000 </r>
       <r>   54.1478    0.0000 </r>
       <r>   54.1478    0.0000 </r>
       <r>   57.2191    0.0000 </r>
       <r>   57.2195    0.0000 </r>
       <r>   57.2670    0.0000 </r>
       <r>   57.2672    0.0000 </r>
       <r>   60.2049    0.0000 </r>
       <r>   60.2305    0.0000 </r>
      </set>
      <set comment="kpoint 10">
       <r>  -29.7303    1.0000 </r>
       <r>  -29.7303    1.0000 </r>
       <r>  -29.5407    1.0000 </r>
       <r>  -29.5407    1.0000 </r>
       <r>  -29.4912    1.0000 </r>
       <r>  -29.4912    1.0000 </r>
       <r>  -14.0985    1.0000 </r>
       <r>  -14.0985    1.0000 </r>
       <r>  -12.9401    1.0000 </r>
       <r>  -12.9401    1.0000 </r>
       <r>   -2.2196    1.0000 </r>
       <r>   -2.2196    1.0000 </r>
       <r>   -0.5072    1.0000 </r>
       <r>   -0.5072    1.0000 </r>
       <r>    0.4915    1.0000 </r>
       <r>    0.4915    1.0000 </r>
       <r>    1.1489    1.0000 </r>
       <r>    1.1489    1.0000 </r>
       <r>    2.1219    1.0000 </r>
       <r>    2.1219    1.0000 </r>
       <r>    2.3222    1.0000 </r>
       <r>    2.3222    1.0000 </r>
       <r>    5.2283    0.0000 </r>
       <r>    5.2283    0.0000 </r>
       <r>    5.8855    0.0000 </r>
       <r>    5.8855    0.0000 </r>
       <r>    7.2330    0.0000 </r>
       <r>    7.2330    0.0000 </r>
       <r>    9.1993    0.0000 </r>
       <r>    9.1993    0.0000 </r>
       <r>   10.0147    0.0000 </r>
       <r>   10.0147    0.0000 </r>
       <r>   14.5288    0.0000 </r>
       <r>   14.5288    0.0000 </r>
       <r>   16.3476    0.0000 </r>
       <r>   16.3476    0.0000 </r>
       <r>   17.9853    0.0000 </r>
       <r>   17.9853    0.0000 </r>
       <r>   21.7256    0.0000 </r>
       <r>   21.7256    0.0000 </r>
       <r>   24.2398    0.0000 </r>
       <r>   24.2398    0.0000 </r>
       <r>   24.9792    0.0000 </r>
       <r>   24.9792    0.0000 </r>
       <r>   25.2453    0.0000 </r>
       <r>   25.2453    0.0000 </r>
       <r>   25.5874    0.0000 </r>
       <r>   25.5874    0.0000 </r>
       <r>   26.6690    0.0000 </r>
       <r>   26.6690    0.0000 </r>
       <r>   30.0778    0.0000 </r>
       <r>   30.0778    0.0000 </r>
       <r>   30.8046    0.0000 </r>
       <r>   30.8046    0.0000 </r>
       <r>   32.4928    0.0000 </r>
       <r>   32.4928    0.0000 </r>
       <r>   35.1689    0.0000 </r>
       <r>   35.1689    0.0000 </r>
       <r>   35.5763    0.0000 </r>
       <r>   35.5763    0.0000 </r>
       <r>   36.8777    0.0000 </r>
       <r>   36.8777    0.0000 </r>
       <r>   40.8732    0.0000 </r>
       <r>   40.8732    0.0000 </r>
       <r>   40.8741    0.0000 </r>
       <r>   40.8741    0.0000 </r>
       <r>   40.8980    0.0000 </r>
       <r>   40.8980    0.0000 </r>
       <r>   44.0204    0.0000 </r>
       <r>   44.0204    0.0000 </r>
       <r>   44.2867    0.0000 </r>
       <r>   44.2867    0.0000 </r>
       <r>   44.7766    0.0000 </r>
       <r>   44.7766    0.0000 </r>
       <r>   45.2700    0.0000 </r>
       <r>   45.2700    0.0000 </r>
       <r>   47.2248    0.0000 </r>
       <r>   47.2248    0.0000 </r>
       <r>   47.3211    0.0000 </r>
       <r>   47.3212    0.0000 </r>
       <r>   47.7008    0.0000 </r>
       <r>   47.7008    0.0000 </r>
       <r>   48.8685    0.0000 </r>
       <r>   48.8685    0.0000 </r>
       <r>   52.4576    0.0000 </r>
       <r>   52.4576    0.0000 </r>
       <r>   53.9180    0.0000 </r>
       <r>   53.9181    0.0000 </r>
       <r>   54.6376    0.0000 </r>
       <r>   54.6376    0.0000 </r>
       <r>   58.0052    0.0000 </r>
       <r>   58.0057    0.0000 </r>
       <r>   58.1047    0.0000 </r>
       <r>   58.1168    0.0000 </r>
       <r>   58.3700    0.0000 </r>
       <r>   58.3713    0.0000 </r>
      </set>
      <set comment="kpoint 11">
       <r>  -29.7031    1.0000 </r>
       <r>  -29.7031    1.0000 </r>
       <r>  -29.5648    1.0000 </r>
       <r>  -29.5459    1.0000 </r>
       <r>  -29.5459    1.0000 </r>
       <r>  -29.5338    1.0000 </r>
       <r>  -14.6571    1.0000 </r>
       <r>  -13.4917    1.0000 </r>
       <r>  -12.8690    1.0000 </r>
       <r>  -12.8690    1.0000 </r>
       <r>   -2.2789    1.0000 </r>
       <r>   -1.8736    1.0000 </r>
       <r>   -1.4804    1.0000 </r>
       <r>   -0.5986    1.0000 </r>
       <r>   -0.5986    1.0000 </r>
       <r>    1.0519    1.0000 </r>
       <r>    1.0613    1.0000 </r>
       <r>    1.0613    1.0000 </r>
       <r>    2.1964    1.0000 </r>
       <r>    2.7003    1.0000 </r>
       <r>    2.7003    1.0000 </r>
       <r>    3.3341    1.0000 </r>
       <r>    5.5167    0.0000 </r>
       <r>    5.6024    0.0000 </r>
       <r>    5.6823    0.0000 </r>
       <r>    6.0262    0.0000 </r>
       <r>    6.0262    0.0000 </r>
       <r>    7.8781    0.0000 </r>
       <r>    7.9739    0.0000 </r>
       <r>    9.8343    0.0000 </r>
       <r>    9.8343    0.0000 </r>
       <r>   10.8260    0.0000 </r>
       <r>   11.5183    0.0000 </r>
       <r>   15.4386    0.0000 </r>
       <r>   15.4386    0.0000 </r>
       <r>   17.7329    0.0000 </r>
       <r>   18.7887    0.0000 </r>
       <r>   19.8541    0.0000 </r>
       <r>   21.3825    0.0000 </r>
       <r>   22.0623    0.0000 </r>
       <r>   22.5562    0.0000 </r>
       <r>   22.5562    0.0000 </r>
       <r>   24.2494    0.0000 </r>
       <r>   25.2451    0.0000 </r>
       <r>   25.2451    0.0000 </r>
       <r>   26.5161    0.0000 </r>
       <r>   27.4415    0.0000 </r>
       <r>   27.4415    0.0000 </r>
       <r>   27.9642    0.0000 </r>
       <r>   27.9642    0.0000 </r>
       <r>   29.0295    0.0000 </r>
       <r>   29.9586    0.0000 </r>
       <r>   30.1504    0.0000 </r>
       <r>   30.5751    0.0000 </r>
       <r>   31.1220    0.0000 </r>
       <r>   31.1220    0.0000 </r>
       <r>   34.7482    0.0000 </r>
       <r>   34.7482    0.0000 </r>
       <r>   34.8999    0.0000 </r>
       <r>   35.9558    0.0000 </r>
       <r>   36.6089    0.0000 </r>
       <r>   37.7329    0.0000 </r>
       <r>   38.4165    0.0000 </r>
       <r>   38.4165    0.0000 </r>
       <r>   39.1111    0.0000 </r>
       <r>   40.8664    0.0000 </r>
       <r>   40.8664    0.0000 </r>
       <r>   41.6354    0.0000 </r>
       <r>   43.4020    0.0000 </r>
       <r>   43.4020    0.0000 </r>
       <r>   43.6114    0.0000 </r>
       <r>   43.6537    0.0000 </r>
       <r>   43.7149    0.0000 </r>
       <r>   43.8913    0.0000 </r>
       <r>   46.0779    0.0000 </r>
       <r>   46.0779    0.0000 </r>
       <r>   47.4499    0.0000 </r>
       <r>   47.4499    0.0000 </r>
       <r>   47.9376    0.0000 </r>
       <r>   48.4828    0.0000 </r>
       <r>   49.4782    0.0000 </r>
       <r>   49.8373    0.0000 </r>
       <r>   51.3671    0.0000 </r>
       <r>   52.1356    0.0000 </r>
       <r>   52.1356    0.0000 </r>
       <r>   54.1897    0.0000 </r>
       <r>   55.0793    0.0000 </r>
       <r>   55.0794    0.0000 </r>
       <r>   55.6276    0.0000 </r>
       <r>   56.3701    0.0000 </r>
       <r>   56.3703    0.0000 </r>
       <r>   57.3432    0.0000 </r>
       <r>   57.6813    0.0000 </r>
       <r>   57.8009    0.0000 </r>
       <r>   57.8043    0.0000 </r>
       <r>   58.6662    0.0000 </r>
      </set>
      <set comment="kpoint 12">
       <r>  -29.6952    1.0000 </r>
       <r>  -29.6937    1.0000 </r>
       <r>  -29.5665    1.0000 </r>
       <r>  -29.5621    1.0000 </r>
       <r>  -29.5509    1.0000 </r>
       <r>  -29.5300    1.0000 </r>
       <r>  -14.5608    1.0000 </r>
       <r>  -13.4929    1.0000 </r>
       <r>  -12.9663    1.0000 </r>
       <r>  -12.9038    1.0000 </r>
       <r>   -2.1099    1.0000 </r>
       <r>   -1.7599    1.0000 </r>
       <r>   -1.3377    1.0000 </r>
       <r>   -0.6082    1.0000 </r>
       <r>   -0.5185    1.0000 </r>
       <r>    0.8365    1.0000 </r>
       <r>    0.8733    1.0000 </r>
       <r>    1.2081    1.0000 </r>
       <r>    1.9021    1.0000 </r>
       <r>    2.4966    1.0000 </r>
       <r>    2.5465    1.0000 </r>
       <r>    3.2180    1.0000 </r>
       <r>    5.6307    0.0000 </r>
       <r>    5.8051    0.0000 </r>
       <r>    5.8145    0.0000 </r>
       <r>    6.0752    0.0000 </r>
       <r>    6.2083    0.0000 </r>
       <r>    7.7426    0.0000 </r>
       <r>    8.1637    0.0000 </r>
       <r>    9.6667    0.0000 </r>
       <r>    9.7586    0.0000 </r>
       <r>   10.7438    0.0000 </r>
       <r>   11.8498    0.0000 </r>
       <r>   15.2782    0.0000 </r>
       <r>   15.6156    0.0000 </r>
       <r>   17.8304    0.0000 </r>
       <r>   18.6942    0.0000 </r>
       <r>   19.6858    0.0000 </r>
       <r>   21.2694    0.0000 </r>
       <r>   22.0329    0.0000 </r>
       <r>   22.2885    0.0000 </r>
       <r>   23.1434    0.0000 </r>
       <r>   24.3961    0.0000 </r>
       <r>   25.2451    0.0000 </r>
       <r>   25.2452    0.0000 </r>
       <r>   25.9725    0.0000 </r>
       <r>   26.5254    0.0000 </r>
       <r>   27.1622    0.0000 </r>
       <r>   27.2967    0.0000 </r>
       <r>   28.0397    0.0000 </r>
       <r>   29.3838    0.0000 </r>
       <r>   29.8793    0.0000 </r>
       <r>   30.7489    0.0000 </r>
       <r>   30.7610    0.0000 </r>
       <r>   31.1793    0.0000 </r>
       <r>   32.9283    0.0000 </r>
       <r>   33.5646    0.0000 </r>
       <r>   34.6718    0.0000 </r>
       <r>   34.7941    0.0000 </r>
       <r>   36.7687    0.0000 </r>
       <r>   37.1035    0.0000 </r>
       <r>   37.6672    0.0000 </r>
       <r>   38.2321    0.0000 </r>
       <r>   38.6941    0.0000 </r>
       <r>   39.9509    0.0000 </r>
       <r>   40.5506    0.0000 </r>
       <r>   40.8495    0.0000 </r>
       <r>   42.0174    0.0000 </r>
       <r>   42.3405    0.0000 </r>
       <r>   42.9577    0.0000 </r>
       <r>   43.0440    0.0000 </r>
       <r>   43.6518    0.0000 </r>
       <r>   44.1059    0.0000 </r>
       <r>   44.3487    0.0000 </r>
       <r>   45.8727    0.0000 </r>
       <r>   46.0069    0.0000 </r>
       <r>   47.0779    0.0000 </r>
       <r>   47.8487    0.0000 </r>
       <r>   48.0261    0.0000 </r>
       <r>   48.8146    0.0000 </r>
       <r>   49.3578    0.0000 </r>
       <r>   50.4440    0.0000 </r>
       <r>   51.5088    0.0000 </r>
       <r>   52.5117    0.0000 </r>
       <r>   52.6661    0.0000 </r>
       <r>   53.2962    0.0000 </r>
       <r>   53.9281    0.0000 </r>
       <r>   54.1132    0.0000 </r>
       <r>   55.1822    0.0000 </r>
       <r>   55.3892    0.0000 </r>
       <r>   56.4248    0.0000 </r>
       <r>   56.4726    0.0000 </r>
       <r>   56.6115    0.0000 </r>
       <r>   57.3415    0.0000 </r>
       <r>   59.0821    0.0000 </r>
       <r>   59.6626    0.0000 </r>
      </set>
      <set comment="kpoint 13">
       <r>  -29.6737    1.0000 </r>
       <r>  -29.6691    1.0000 </r>
       <r>  -29.5922    1.0000 </r>
       <r>  -29.5866    1.0000 </r>
       <r>  -29.5486    1.0000 </r>
       <r>  -29.5322    1.0000 </r>
       <r>  -14.2935    1.0000 </r>
       <r>  -13.5929    1.0000 </r>
       <r>  -13.1172    1.0000 </r>
       <r>  -12.9931    1.0000 </r>
       <r>   -1.7336    1.0000 </r>
       <r>   -1.5070    1.0000 </r>
       <r>   -0.9359    1.0000 </r>
       <r>   -0.6314    1.0000 </r>
       <r>   -0.3075    1.0000 </r>
       <r>    0.4991    1.0000 </r>
       <r>    0.6788    1.0000 </r>
       <r>    1.1323    1.0000 </r>
       <r>    1.2072    1.0000 </r>
       <r>    1.9277    1.0000 </r>
       <r>    2.5037    1.0000 </r>
       <r>    2.9840    1.0000 </r>
       <r>    5.8340    0.0000 </r>
       <r>    6.0282    0.0000 </r>
       <r>    6.1837    0.0000 </r>
       <r>    6.2831    0.0000 </r>
       <r>    6.5472    0.0000 </r>
       <r>    7.3851    0.0000 </r>
       <r>    8.6870    0.0000 </r>
       <r>    9.3818    0.0000 </r>
       <r>    9.6080    0.0000 </r>
       <r>   10.3359    0.0000 </r>
       <r>   12.7151    0.0000 </r>
       <r>   14.6928    0.0000 </r>
       <r>   16.1796    0.0000 </r>
       <r>   17.8513    0.0000 </r>
       <r>   18.6340    0.0000 </r>
       <r>   19.4296    0.0000 </r>
       <r>   21.2216    0.0000 </r>
       <r>   21.8512    0.0000 </r>
       <r>   21.8836    0.0000 </r>
       <r>   23.2779    0.0000 </r>
       <r>   24.7889    0.0000 </r>
       <r>   25.2406    0.0000 </r>
       <r>   25.2450    0.0000 </r>
       <r>   25.2993    0.0000 </r>
       <r>   26.1046    0.0000 </r>
       <r>   26.8386    0.0000 </r>
       <r>   26.8549    0.0000 </r>
       <r>   28.0376    0.0000 </r>
       <r>   29.3435    0.0000 </r>
       <r>   29.9572    0.0000 </r>
       <r>   30.2059    0.0000 </r>
       <r>   31.6073    0.0000 </r>
       <r>   31.9003    0.0000 </r>
       <r>   32.5370    0.0000 </r>
       <r>   33.9576    0.0000 </r>
       <r>   34.9366    0.0000 </r>
       <r>   35.5257    0.0000 </r>
       <r>   36.8201    0.0000 </r>
       <r>   37.6200    0.0000 </r>
       <r>   38.2805    0.0000 </r>
       <r>   38.3821    0.0000 </r>
       <r>   40.0013    0.0000 </r>
       <r>   40.2397    0.0000 </r>
       <r>   40.5718    0.0000 </r>
       <r>   41.4329    0.0000 </r>
       <r>   41.8617    0.0000 </r>
       <r>   42.2829    0.0000 </r>
       <r>   42.3988    0.0000 </r>
       <r>   42.9921    0.0000 </r>
       <r>   43.4169    0.0000 </r>
       <r>   44.1614    0.0000 </r>
       <r>   44.1702    0.0000 </r>
       <r>   45.2551    0.0000 </r>
       <r>   46.1081    0.0000 </r>
       <r>   46.2895    0.0000 </r>
       <r>   46.9395    0.0000 </r>
       <r>   48.2480    0.0000 </r>
       <r>   48.6261    0.0000 </r>
       <r>   49.3787    0.0000 </r>
       <r>   49.7828    0.0000 </r>
[...]
       <r>   57.9092    0.0000 </r>
       <r>   58.7007    0.0000 </r>
       <r>   58.7410    0.0000 </r>
       <r>   58.9991    0.0000 </r>
      </set>
      <set comment="kpoint 140">
       <r>  -29.8158    1.0000 </r>
       <r>  -29.7988    1.0000 </r>
       <r>  -29.6321    1.0000 </r>
       <r>  -29.6321    1.0000 </r>
       <r>  -29.5375    1.0000 </r>
       <r>  -29.5375    1.0000 </r>
       <r>  -13.9644    1.0000 </r>
       <r>  -13.1831    1.0000 </r>
       <r>  -13.1598    1.0000 </r>
       <r>  -13.1598    1.0000 </r>
       <r>   -1.3775    1.0000 </r>
       <r>   -1.2405    1.0000 </r>
       <r>   -0.7418    1.0000 </r>
       <r>   -0.7418    1.0000 </r>
       <r>   -0.6016    1.0000 </r>
       <r>   -0.2795    1.0000 </r>
       <r>    0.4911    1.0000 </r>
       <r>    1.5445    1.0000 </r>
       <r>    1.5445    1.0000 </r>
       <r>    1.7348    1.0000 </r>
       <r>    1.7348    1.0000 </r>
       <r>    2.6417    1.0000 </r>
       <r>    5.6281    0.0000 </r>
       <r>    6.0148    0.0000 </r>
       <r>    6.4214    0.0000 </r>
       <r>    6.6808    0.0000 </r>
       <r>    6.6808    0.0000 </r>
       <r>    7.2842    0.0000 </r>
       <r>    8.6345    0.0000 </r>
       <r>    9.4425    0.0000 </r>
       <r>    9.4425    0.0000 </r>
       <r>    9.7812    0.0000 </r>
       <r>   13.3995    0.0000 </r>
       <r>   17.5086    0.0000 </r>
       <r>   17.5086    0.0000 </r>
       <r>   17.6714    0.0000 </r>
       <r>   17.9798    0.0000 </r>
       <r>   20.0342    0.0000 </r>
       <r>   20.7354    0.0000 </r>
       <r>   21.2886    0.0000 </r>
       <r>   21.5806    0.0000 </r>
       <r>   21.5806    0.0000 </r>
       <r>   22.2306    0.0000 </r>
       <r>   25.2443    0.0000 </r>
       <r>   25.2452    0.0000 </r>
       <r>   25.5921    0.0000 </r>
       <r>   26.1478    0.0000 </r>
       <r>   26.1478    0.0000 </r>
       <r>   28.4428    0.0000 </r>
       <r>   28.5709    0.0000 </r>
       <r>   28.5709    0.0000 </r>
       <r>   29.6801    0.0000 </r>
       <r>   30.2874    0.0000 </r>
       <r>   32.6782    0.0000 </r>
       <r>   32.6782    0.0000 </r>
       <r>   33.7538    0.0000 </r>
       <r>   34.0246    0.0000 </r>
       <r>   34.1751    0.0000 </r>
       <r>   34.1751    0.0000 </r>
       <r>   35.6912    0.0000 </r>
       <r>   38.6203    0.0000 </r>
       <r>   39.1579    0.0000 </r>
       <r>   39.5859    0.0000 </r>
       <r>   39.5859    0.0000 </r>
       <r>   41.0416    0.0000 </r>
       <r>   41.1105    0.0000 </r>
       <r>   41.6749    0.0000 </r>
       <r>   42.1369    0.0000 </r>
       <r>   42.1369    0.0000 </r>
       <r>   42.9745    0.0000 </r>
       <r>   43.7341    0.0000 </r>
       <r>   43.7341    0.0000 </r>
       <r>   44.0032    0.0000 </r>
       <r>   44.2226    0.0000 </r>
       <r>   44.2226    0.0000 </r>
       <r>   45.8278    0.0000 </r>
       <r>   48.1713    0.0000 </r>
       <r>   48.1810    0.0000 </r>
       <r>   48.1810    0.0000 </r>
       <r>   48.3149    0.0000 </r>
       <r>   49.7198    0.0000 </r>
       <r>   49.8981    0.0000 </r>
       <r>   49.8981    0.0000 </r>
       <r>   52.5526    0.0000 </r>
       <r>   53.0932    0.0000 </r>
       <r>   53.0932    0.0000 </r>
       <r>   53.8414    0.0000 </r>
       <r>   54.7029    0.0000 </r>
       <r>   55.5619    0.0000 </r>
       <r>   56.5698    0.0000 </r>
       <r>   57.3568    0.0000 </r>
       <r>   57.3575    0.0000 </r>
       <r>   57.7996    0.0000 </r>
       <r>   58.7040    0.0000 </r>
       <r>   58.7218    0.0000 </r>
       <r>   58.8893    0.0000 </r>
      </set>
     </set>
    </set>
   </array>
  </eigenvalues>
  <separator name="orbital magnetization" >
   <v name="MAGDIPOLOUT">      0.00000000      0.00000000      0.00000000</v>
  </separator>
  <dos>
   <i name="efermi">      3.64114503 </i>
   <total>
    <array>
     <dimension dim="1">gridpoints</dimension>
     <dimension dim="2">spin</dimension>
     <field>energy</field>
     <field>total</field>
     <field>integrated</field>
     <set>
      <set comment="spin 1">
       <r>   -34.4735     0.0000     0.0000 </r>
       <r>   -34.1427     0.0000     0.0000 </r>
       <r>   -33.8120     0.0000     0.0000 </r>
       <r>   -33.4813     0.0000     0.0000 </r>
       <r>   -33.1506     0.0000     0.0000 </r>
       <r>   -32.8199     0.0000     0.0000 </r>
       <r>   -32.4892     0.0000     0.0000 </r>
       <r>   -32.1585     0.0000     0.0000 </r>
       <r>   -31.8278     0.0000     0.0000 </r>
       <r>   -31.4970     0.0000     0.0000 </r>
       <r>   -31.1663     0.0000     0.0000 </r>
       <r>   -30.8356     0.0000     0.0000 </r>
       <r>   -30.5049     0.0000     0.0000 </r>
       <r>   -30.1742     0.0000     0.0000 </r>
       <r>   -29.8435     4.4495     1.4715 </r>
       <r>   -29.5128    28.5505    10.9141 </r>
       <r>   -29.1821     3.2458    12.0000 </r>
       <r>   -28.8513     0.0000    12.0000 </r>
       <r>   -28.5206     0.0000    12.0000 </r>
       <r>   -28.1899     0.0000    12.0000 </r>
       <r>   -27.8592     0.0000    12.0000 </r>
       <r>   -27.5285     0.0000    12.0000 </r>
       <r>   -27.1978     0.0000    12.0000 </r>
       <r>   -26.8671     0.0000    12.0000 </r>
       <r>   -26.5364     0.0000    12.0000 </r>
       <r>   -26.2056     0.0000    12.0000 </r>
       <r>   -25.8749     0.0000    12.0000 </r>
       <r>   -25.5442     0.0000    12.0000 </r>
       <r>   -25.2135     0.0000    12.0000 </r>
       <r>   -24.8828     0.0000    12.0000 </r>
       <r>   -24.5521     0.0000    12.0000 </r>
       <r>   -24.2214     0.0000    12.0000 </r>
       <r>   -23.8907     0.0000    12.0000 </r>
       <r>   -23.5599     0.0000    12.0000 </r>
       <r>   -23.2292     0.0000    12.0000 </r>
       <r>   -22.8985     0.0000    12.0000 </r>
       <r>   -22.5678     0.0000    12.0000 </r>
       <r>   -22.2371     0.0000    12.0000 </r>
       <r>   -21.9064     0.0000    12.0000 </r>
       <r>   -21.5757     0.0000    12.0000 </r>
       <r>   -21.2450     0.0000    12.0000 </r>
       <r>   -20.9143     0.0000    12.0000 </r>
       <r>   -20.5835     0.0000    12.0000 </r>
       <r>   -20.2528     0.0000    12.0000 </r>
       <r>   -19.9221     0.0000    12.0000 </r>
       <r>   -19.5914     0.0000    12.0000 </r>
       <r>   -19.2607     0.0000    12.0000 </r>
       <r>   -18.9300     0.0000    12.0000 </r>
       <r>   -18.5993     0.0000    12.0000 </r>
       <r>   -18.2686     0.0000    12.0000 </r>
       <r>   -17.9378     0.0000    12.0000 </r>
       <r>   -17.6071     0.0000    12.0000 </r>
       <r>   -17.2764     0.0000    12.0000 </r>
       <r>   -16.9457     0.0000    12.0000 </r>
       <r>   -16.6150     0.0000    12.0000 </r>
       <r>   -16.2843     0.0000    12.0000 </r>
       <r>   -15.9536     0.0000    12.0000 </r>
       <r>   -15.6229     0.0000    12.0000 </r>
       <r>   -15.2921     0.0000    12.0000 </r>
       <r>   -14.9614     0.0000    12.0000 </r>
       <r>   -14.6307     0.1413    12.0467 </r>
       <r>   -14.3000     0.6984    12.2777 </r>
       <r>   -13.9693     1.8155    12.8793 </r>
       <r>   -13.6386     3.6864    14.0993 </r>
       <r>   -13.3079     5.4838    15.9136 </r>
       <r>   -12.9772     9.7891    19.1524 </r>
       <r>   -12.6464     2.5476    20.0000 </r>
       <r>   -12.3157     0.0000    20.0000 </r>
       <r>   -11.9850     0.0000    20.0000 </r>
       <r>   -11.6543     0.0000    20.0000 </r>
       <r>   -11.3236     0.0000    20.0000 </r>
       <r>   -10.9929     0.0000    20.0000 </r>
       <r>   -10.6622     0.0000    20.0000 </r>
       <r>   -10.3315     0.0000    20.0000 </r>
       <r>   -10.0007     0.0000    20.0000 </r>
       <r>    -9.6700     0.0000    20.0000 </r>
       <r>    -9.3393     0.0000    20.0000 </r>
       <r>    -9.0086     0.0000    20.0000 </r>
       <r>    -8.6779     0.0000    20.0000 </r>
       <r>    -8.3472     0.0000    20.0000 </r>
       <r>    -8.0165     0.0000    20.0000 </r>
       <r>    -7.6858     0.0000    20.0000 </r>
       <r>    -7.3550     0.0000    20.0000 </r>
       <r>    -7.0243     0.0000    20.0000 </r>
       <r>    -6.6936     0.0000    20.0000 </r>
       <r>    -6.3629     0.0000    20.0000 </r>
       <r>    -6.0322     0.0000    20.0000 </r>
       <r>    -5.7015     0.0000    20.0000 </r>
       <r>    -5.3708     0.0000    20.0000 </r>
       <r>    -5.0401     0.0000    20.0000 </r>
       <r>    -4.7093     0.0000    20.0000 </r>
       <r>    -4.3786     0.0000    20.0000 </r>
       <r>    -4.0479     0.0000    20.0000 </r>
       <r>    -3.7172     0.0000    20.0000 </r>
       <r>    -3.3865     0.0000    20.0000 </r>
       <r>    -3.0558     0.0000    20.0000 </r>
       <r>    -2.7251     0.0000    20.0000 </r>
       <r>    -2.3944     0.0183    20.0061 </r>
       <r>    -2.0636     0.9525    20.3212 </r>
       <r>    -1.7329     1.5179    20.8232 </r>
       <r>    -1.4022     4.7529    22.3951 </r>
       <r>    -1.0715     6.8619    24.6651 </r>
       <r>    -0.7408     6.4873    26.8120 </r>
       <r>    -0.4101     4.8982    28.4349 </r>
       <r>    -0.0794     3.3826    29.5541 </r>
       <r>     0.2513     4.6281    31.0881 </r>
       <r>     0.5821     3.0963    32.1133 </r>
       <r>     0.9128     5.8972    34.0647 </r>
       <r>     1.2435     5.1627    35.7738 </r>
       <r>     1.5742     5.6922    37.6586 </r>
       <r>     1.9049     5.2063    39.3857 </r>
       <r>     2.2356     5.1157    41.0808 </r>
       <r>     2.5663     4.9226    42.7095 </r>
       <r>     2.8970     2.7335    43.6166 </r>
       <r>     3.2278     0.9355    43.9274 </r>
       <r>     3.5585     0.2197    44.0000 </r>
       <r>     3.8892     0.0000    44.0000 </r>
       <r>     4.2199     0.0000    44.0000 </r>
       <r>     4.5506     0.0000    44.0000 </r>
       <r>     4.8813     0.0000    44.0000 </r>
       <r>     5.2120     0.0412    44.0136 </r>
       <r>     5.5427     2.7272    44.9155 </r>
       <r>     5.8735     4.4867    46.4002 </r>
       <r>     6.2042     6.9272    48.6918 </r>
       <r>     6.5349     7.1105    51.0435 </r>
       <r>     6.8656     7.0106    53.3645 </r>
       <r>     7.1963     4.5565    54.8725 </r>
       <r>     7.5270     2.8453    55.8138 </r>
       <r>     7.8577     0.5160    55.9856 </r>
       <r>     8.1884     0.3524    56.1023 </r>
       <r>     8.5192     2.5381    56.9417 </r>
       <r>     8.8499     3.3200    58.0414 </r>
       <r>     9.1806     2.4477    58.8510 </r>
       <r>     9.5113     3.8524    60.1253 </r>
       <r>     9.8420     4.4618    61.6021 </r>
       <r>    10.1727     3.2305    62.6735 </r>
       <r>    10.5034     3.3368    63.7774 </r>
       <r>    10.8341     0.5851    63.9723 </r>
       <r>    11.1649     0.0980    64.0050 </r>
       <r>    11.4956     0.0758    64.0301 </r>
       <r>    11.8263     0.1230    64.0708 </r>
       <r>    12.1570     0.1743    64.1284 </r>
       <r>    12.4877     0.1974    64.1937 </r>
       <r>    12.8184     0.4635    64.3470 </r>
       <r>    13.1491     0.4624    64.5000 </r>
       <r>    13.4798     0.2125    64.5703 </r>
       <r>    13.8106     0.8501    64.8516 </r>
       <r>    14.1413     0.6660    65.0719 </r>
       <r>    14.4720     1.1972    65.4679 </r>
       <r>    14.8027     1.1865    65.8603 </r>
       <r>    15.1334     2.7961    66.7850 </r>
       <r>    15.4641     1.4315    67.2592 </r>
       <r>    15.7948     1.1033    67.6261 </r>
       <r>    16.1255     1.3778    68.0822 </r>
       <r>    16.4563     0.8277    68.3560 </r>
       <r>    16.7870     1.3278    68.7951 </r>
       <r>    17.1177     1.8201    69.3977 </r>
       <r>    17.4484     1.9320    70.0375 </r>
       <r>    17.7791     1.2706    70.4583 </r>
       <r>    18.1098     3.0986    71.4832 </r>
       <r>    18.4405     2.3743    72.2688 </r>
       <r>    18.7712     5.0388    73.9374 </r>
       <r>    19.1019     2.1488    74.6491 </r>
       <r>    19.4327     2.5763    75.5030 </r>
       <r>    19.7634     1.7018    76.0666 </r>
       <r>    20.0941     0.7410    76.3124 </r>
       <r>    20.4248     1.7331    76.8858 </r>
       <r>    20.7555     2.9621    77.8663 </r>
       <r>    21.0862     2.9995    78.8590 </r>
       <r>    21.4169     4.2072    80.2535 </r>
       <r>    21.7476     2.9011    81.2146 </r>
       <r>    22.0784     3.0951    82.2393 </r>
       <r>    22.4091     2.0420    82.9159 </r>
       <r>    22.7398     2.3993    83.7099 </r>
       <r>    23.0705     1.7065    84.2758 </r>
       <r>    23.4012     2.2734    85.0280 </r>
       <r>    23.7319     1.9430    85.6706 </r>
       <r>    24.0626     1.4814    86.1629 </r>
       <r>    24.3933     0.9253    86.4689 </r>
       <r>    24.7241     1.4576    86.9510 </r>
       <r>    25.0548     1.5168    87.4534 </r>
       <r>    25.3855    14.0732    92.1085 </r>
       <r>    25.7162     1.5578    92.6247 </r>
       <r>    26.0469     2.1673    93.3437 </r>
       <r>    26.3776     1.2918    93.7720 </r>
       <r>    26.7083     3.1091    94.8007 </r>
       <r>    27.0390     2.4340    95.6065 </r>
       <r>    27.3698     2.4060    96.4022 </r>
       <r>    27.7005     1.4523    96.8846 </r>
       <r>    28.0312     1.7327    97.4577 </r>
       <r>    28.3619     2.2692    98.2085 </r>
       <r>    28.6926     3.2125    99.2712 </r>
       <r>    29.0233     1.1201    99.6436 </r>
       <r>    29.3540     3.1463   100.6844 </r>
       <r>    29.6847     3.5158   101.8476 </r>
       <r>    30.0155     3.4118   102.9780 </r>
       <r>    30.3462     1.9634   103.6320 </r>
       <r>    30.6769     2.2558   104.3782 </r>
       <r>    31.0076     2.9465   105.3540 </r>
       <r>    31.3383     2.1178   106.0562 </r>
       <r>    31.6690     2.7428   106.9640 </r>
       <r>    31.9997     2.4468   107.7771 </r>
       <r>    32.3304     3.4755   108.9270 </r>
       <r>    32.6612     2.4178   109.7276 </r>
       <r>    32.9919     1.7472   110.3072 </r>
       <r>    33.3226     2.5601   111.1540 </r>
       <r>    33.6533     3.3902   112.2756 </r>
       <r>    33.9840     1.3902   112.7361 </r>
       <r>    34.3147     0.9942   113.0650 </r>
       <r>    34.6454     1.7361   113.6395 </r>
       <r>    34.9761     3.0621   114.6535 </r>
       <r>    35.3069     2.2176   115.3878 </r>
       <r>    35.6376     2.5789   116.2410 </r>
       <r>    35.9683     2.7750   117.1592 </r>
       <r>    36.2990     3.2876   118.2467 </r>
       <r>    36.6297     2.3280   119.0174 </r>
       <r>    36.9604     2.8094   119.9472 </r>
       <r>    37.2911     1.7317   120.5230 </r>
       <r>    37.6218     1.5621   121.0402 </r>
       <r>    37.9526     3.0656   122.0542 </r>
       <r>    38.2833     2.3397   122.8297 </r>
       <r>    38.6140     2.1518   123.5433 </r>
       <r>    38.9447     3.3369   124.6469 </r>
       <r>    39.2754     2.7727   125.5648 </r>
       <r>    39.6061     2.4731   126.3837 </r>
       <r>    39.9368     3.3141   127.4808 </r>
       <r>    40.2675     2.6840   128.3685 </r>
       <r>    40.5983     2.4964   129.1974 </r>
       <r>    40.9290     3.5252   130.3652 </r>
       <r>    41.2597     4.2161   131.7606 </r>
       <r>    41.5904     3.9089   133.0545 </r>
       <r>    41.9211     3.6815   134.2735 </r>
       <r>    42.2518     4.3827   135.7232 </r>
       <r>    42.5825     4.2885   137.1422 </r>
       <r>    42.9132     4.5290   138.6414 </r>
       <r>    43.2440     3.5846   139.8279 </r>
       <r>    43.5747     4.3956   141.2816 </r>
       <r>    43.9054     4.6958   142.8367 </r>
       <r>    44.2361     3.2385   143.9082 </r>
       <r>    44.5668     4.2349   145.3107 </r>
       <r>    44.8975     5.3061   147.0655 </r>
       <r>    45.2282     2.8655   148.0149 </r>
       <r>    45.5589     2.0624   148.6983 </r>
       <r>    45.8897     3.2163   149.7622 </r>
       <r>    46.2204     4.4050   151.2196 </r>
       <r>    46.5511     2.7350   152.1247 </r>
       <r>    46.8818     3.4579   153.2683 </r>
       <r>    47.2125     1.9296   153.9070 </r>
       <r>    47.5432     3.8126   155.1679 </r>
       <r>    47.8739     4.0468   156.5065 </r>
       <r>    48.2046     2.8148   157.4395 </r>
       <r>    48.5354     3.0381   158.4445 </r>
       <r>    48.8661     2.8065   159.3730 </r>
       <r>    49.1968     2.5345   160.2113 </r>
       <r>    49.5275     2.3331   160.9845 </r>
       <r>    49.8582     3.0990   162.0099 </r>
       <r>    50.1889     3.1665   163.0585 </r>
       <r>    50.5196     1.9010   163.6872 </r>
       <r>    50.8503     4.2547   165.0965 </r>
       <r>    51.1811     3.4721   166.2469 </r>
       <r>    51.5118     2.5483   167.0900 </r>
       <r>    51.8425     2.9243   168.0573 </r>
       <r>    52.1732     2.9902   169.0484 </r>
       <r>    52.5039     3.1142   170.0788 </r>
       <r>    52.8346     4.0117   171.4063 </r>
       <r>    53.1653     3.9242   172.7048 </r>
       <r>    53.4960     3.8925   173.9946 </r>
       <r>    53.8268     3.5436   175.1666 </r>
       <r>    54.1575     3.3935   176.2900 </r>
       <r>    54.4882     4.3718   177.7364 </r>
       <r>    54.8189     2.6330   178.6092 </r>
       <r>    55.1496     3.0843   179.6294 </r>
       <r>    55.4803     4.3959   181.0872 </r>
       <r>    55.8110     3.4400   182.2264 </r>
       <r>    56.1417     2.7571   183.1384 </r>
       <r>    56.4725     2.6853   184.0265 </r>
       <r>    56.8032     2.9559   185.0041 </r>
       <r>    57.1339     4.3578   186.4480 </r>
       <r>    57.4646     3.3506   187.5564 </r>
       <r>    57.7953     3.0672   188.5715 </r>
       <r>    58.1260     2.4477   189.3838 </r>
       <r>    58.4567     2.6912   190.2741 </r>
       <r>    58.7874     1.7374   190.8489 </r>
       <r>    59.1181     2.0317   191.5210 </r>
       <r>    59.4489     0.6734   191.7438 </r>
       <r>    59.7796     0.5827   191.9365 </r>
       <r>    60.1103     0.0430   191.9507 </r>
       <r>    60.4410     0.1490   192.0000 </r>
       <r>    60.7717     0.0000   192.0000 </r>
       <r>    61.1024     0.0000   192.0000 </r>
       <r>    61.4331     0.0000   192.0000 </r>
       <r>    61.7638     0.0000   192.0000 </r>
       <r>    62.0946     0.0000   192.0000 </r>
       <r>    62.4253     0.0000   192.0000 </r>
       <r>    62.7560     0.0000   192.0000 </r>
       <r>    63.0867     0.0000   192.0000 </r>
       <r>    63.4174     0.0000   192.0000 </r>
       <r>    63.7481     0.0000   192.0000 </r>
       <r>    64.0788     0.0000   192.0000 </r>
       <r>    64.4095     0.0000   192.0000 </r>
       <r>    64.7403     0.0000   192.0000 </r>
      </set>
     </set>
    </array>
   </total>
  </dos>
 </calculation>
 <structure name="finalpos" >
  <crystal>
   <varray name="basis" >
    <v>       4.60094756      -0.00000000       0.00000000 </v>
    <v>       0.00000000       4.60094756       0.00000000 </v>
    <v>      -0.00000000      -0.00000000       2.94242885 </v>
   </varray>
   <i name="volume">     62.28744797 </i>
   <varray name="rec_basis" >
    <v>       0.21734653      -0.00000000       0.00000000 </v>
    <v>       0.00000000       0.21734653       0.00000000 </v>
    <v>      -0.00000000      -0.00000000       0.33985529 </v>
   </varray>
  </crystal>
  <varray name="positions" >
   <v>       0.50000000       0.50000000       0.50000000 </v>
   <v>       0.00000000       0.00000000       0.00000000 </v>
   <v>       0.19567008       0.80432992       0.50000000 </v>
   <v>       0.80432992       0.19567008       0.50000000 </v>
   <v>       0.30432992       0.30432992       0.00000000 </v>
   <v>       0.69567008       0.69567008       0.00000000 </v>
  </varray>
 </structure>
</modeling>
