<?xml version="1.0" encoding="ISO-8859-1"?>
<modeling>
 <generator>
  <i name="program" type="string">vasp </i>
  <i name="version" type="string">6.2.1  </i>
  <i name="subversion" type="string">16May21 (build Feb 21 2022 05:53:28) complex                          parallel </i>
  <i name="platform" type="string">CrayXC_GCC_OMP </i>
  <i name="date" type="string">2023 01 20 </i>
  <i name="time" type="string">06:16:11 </i>
 </generator>
 <incar>
  <i type="int" name="ISTART">     0</i>
  <i type="string" name="PREC">Accurate</i>
  <i type="string" name="ALGO">All</i>
  <i type="int" name="ICHARG">    11</i>
  <i type="int" name="IBRION">     2</i>
  <i name="EDIFF">      0.00000100</i>
  <i name="EDIFFG">     -0.01000000</i>
  <i type="int" name="NSW">     0</i>
  <i type="int" name="ISIF">     2</i>
  <i name="ENCUT">    500.00000000</i>
  <i type="int" name="NBANDS">    88</i>
  <i name="POTIM">      0.10000000</i>
  <i type="logical" name="LREAL"> F  </i>
  <i type="int" name="ISMEAR">     0</i>
  <i name="SIGMA">      0.05000000</i>
  <i type="logical" name="LWAVE"> F  </i>
  <i type="logical" name="LCHARG"> T  </i>
  <i type="string" name="GGA">PS</i>
 </incar>
 <primitive_cell>
  <structure name="primitive_cell" >
   <crystal>
    <varray name="basis" >
     <v>       4.60094756      -0.00000000       0.00000000 </v>
     <v>       0.00000000       4.60094756       0.00000000 </v>
     <v>      -0.00000000      -0.00000000       2.94242885 </v>
    </varray>
    <i name="volume">     62.28744797 </i>
    <varray name="rec_basis" >
     <v>       0.21734653      -0.00000000       0.00000000 </v>
     <v>       0.00000000       0.21734653       0.00000000 </v>
     <v>      -0.00000000      -0.00000000       0.33985529 </v>
    </varray>
   </crystal>
   <varray name="positions" >
    <v>       0.50000000       0.50000000       0.50000000 </v>
    <v>       0.00000000       0.00000000       0.00000000 </v>
    <v>       0.19567008       0.80432992       0.50000000 </v>
    <v>       0.80432992       0.19567008       0.50000000 </v>
    <v>       0.30432992       0.30432992       0.00000000 </v>
    <v>       0.69567008       0.69567008       0.00000000 </v>
   </varray>
  </structure>
  <varray name="primitive_index" >
   <v type="int" >        1 </v>
   <v type="int" >        2 </v>
   <v type="int" >        3 </v>
   <v type="int" >        4 </v>
   <v type="int" >        5 </v>
   <v type="int" >        6 </v>
  </varray>
 </primitive_cell>
 <kpoints>
  <varray name="kpointlist" >
   <v>       0.00000000       0.00000000       0.00000000 </v>
   <v>       0.16666667      -0.00000000       0.00000000 </v>
   <v>       0.33333333       0.00000000       0.00000000 </v>
   <v>       0.50000000       0.00000000       0.00000000 </v>
   <v>       0.16666667       0.16666667       0.00000000 </v>
   <v>       0.33333333       0.16666667       0.00000000 </v>
   <v>       0.50000000       0.16666667       0.00000000 </v>
   <v>       0.33333333       0.33333333       0.00000000 </v>
   <v>       0.50000000       0.33333333       0.00000000 </v>
   <v>       0.50000000       0.50000000       0.00000000 </v>
   <v>      -0.00000000      -0.00000000       0.11111111 </v>
   <v>       0.16666667      -0.00000000       0.11111111 </v>
   <v>       0.33333333       0.00000000       0.11111111 </v>
   <v>       0.50000000       0.00000000       0.11111111 </v>
   <v>       0.16666667       0.16666667       0.11111111 </v>
   <v>       0.33333333       0.16666667       0.11111111 </v>
   <v>       0.50000000       0.16666667       0.11111111 </v>
   <v>       0.33333333       0.33333333       0.11111111 </v>
   <v>       0.50000000       0.33333333       0.11111111 </v>
   <v>       0.50000000       0.50000000       0.11111111 </v>
   <v>       0.00000000       0.00000000       0.22222222 </v>
   <v>       0.16666667      -0.00000000       0.22222222 </v>
   <v>       0.33333333       0.00000000       0.22222222 </v>
   <v>       0.50000000       0.00000000       0.22222222 </v>
   <v>       0.16666667       0.16666667       0.22222222 </v>
   <v>       0.33333333       0.16666667       0.22222222 </v>
   <v>       0.50000000       0.16666667       0.22222222 </v>
   <v>       0.33333333       0.33333333       0.22222222 </v>
   <v>       0.50000000       0.33333333       0.22222222 </v>
   <v>       0.50000000       0.50000000       0.22222222 </v>
   <v>      -0.00000000      -0.00000000       0.33333333 </v>
   <v>       0.16666667      -0.00000000       0.33333333 </v>
   <v>       0.33333333      -0.00000000       0.33333333 </v>
   <v>       0.50000000      -0.00000000       0.33333333 </v>
   <v>       0.16666667       0.16666667       0.33333333 </v>
   <v>       0.33333333       0.16666667       0.33333333 </v>
   <v>       0.50000000       0.16666667       0.33333333 </v>
   <v>       0.33333333       0.33333333       0.33333333 </v>
   <v>       0.50000000       0.33333333       0.33333333 </v>
   <v>       0.50000000       0.50000000       0.33333333 </v>
   <v>       0.00000000       0.00000000       0.44444444 </v>
   <v>       0.16666667       0.00000000       0.44444444 </v>
   <v>       0.33333333       0.00000000       0.44444444 </v>
   <v>       0.50000000       0.00000000       0.44444444 </v>
   <v>       0.16666667       0.16666667       0.44444444 </v>
   <v>       0.33333333       0.16666667       0.44444444 </v>
   <v>       0.50000000       0.16666667       0.44444444 </v>
   <v>       0.33333333       0.33333333       0.44444444 </v>
   <v>       0.50000000       0.33333333       0.44444444 </v>
   <v>       0.50000000       0.50000000       0.44444444 </v>
   <v>       0.00000000      -0.00000000       0.30769231 </v>
   <v>       0.00000000       0.00000000       0.31538462 </v>
   <v>       0.00000000      -0.00000000       0.32307692 </v>
   <v>       0.00000000      -0.00000000       0.33076923 </v>
   <v>       0.00000000      -0.00000000       0.33846154 </v>
   <v>       0.00000000      -0.00000000       0.34615385 </v>
   <v>       0.00000000       0.00000000       0.35384615 </v>
   <v>       0.00000000       0.00000000       0.36153846 </v>
   <v>       0.00000000       0.00000000       0.36923077 </v>
   <v>       0.00000000      -0.00000000       0.37692308 </v>
   <v>       0.00000000      -0.00000000       0.38461538 </v>
   <v>       0.00000000      -0.00000000       0.39230769 </v>
   <v>       0.00000000       0.00000000       0.40000000 </v>
   <v>       0.00000000       0.00000000       0.40769231 </v>
   <v>      -0.00000000       0.00000000       0.41538462 </v>
   <v>      -0.00000000      -0.00000000       0.42307692 </v>
   <v>       0.00000000       0.00000000       0.43076923 </v>
   <v>       0.00000000       0.00000000       0.43846154 </v>
   <v>      -0.00000000      -0.00000000       0.44615385 </v>
   <v>       0.00000000       0.00000000       0.45384615 </v>
   <v>      -0.00000000       0.00000000       0.46153846 </v>
   <v>      -0.00000000       0.00000000       0.46923077 </v>
   <v>       0.00000000       0.00000000       0.47692308 </v>
   <v>       0.00000000       0.00000000       0.48461538 </v>
   <v>      -0.00000000       0.00000000       0.49230769 </v>
   <v>       0.00000000       0.00000000       0.50000000 </v>
   <v>       0.00000000       0.01219512       0.50000000 </v>
   <v>       0.00000000       0.02439024       0.50000000 </v>
   <v>       0.00000000       0.03658537       0.50000000 </v>
   <v>       0.00000000       0.04878049       0.50000000 </v>
   <v>       0.00000000       0.06097561       0.50000000 </v>
   <v>       0.00000000       0.07317073       0.50000000 </v>
   <v>       0.00000000       0.08536585       0.50000000 </v>
   <v>       0.00000000       0.09756098       0.50000000 </v>
   <v>       0.00000000       0.10975610       0.50000000 </v>
   <v>       0.00000000       0.12195122       0.50000000 </v>
   <v>       0.00000000       0.13414634       0.50000000 </v>
   <v>       0.00000000       0.14634146       0.50000000 </v>
   <v>       0.00000000       0.15853659       0.50000000 </v>
   <v>       0.00000000       0.17073171       0.50000000 </v>
   <v>       0.00000000       0.18292683       0.50000000 </v>
   <v>       0.00000000       0.19512195       0.50000000 </v>
   <v>       0.00000000       0.20731707       0.50000000 </v>
   <v>       0.00000000       0.21951220       0.50000000 </v>
   <v>       0.00000000       0.23170732       0.50000000 </v>
   <v>       0.00000000       0.24390244       0.50000000 </v>
   <v>       0.00000000       0.25609756       0.50000000 </v>
   <v>       0.00000000       0.26829268       0.50000000 </v>
   <v>       0.00000000       0.28048780       0.50000000 </v>
   <v>       0.00000000       0.29268293       0.50000000 </v>
   <v>       0.00000000       0.30487805       0.50000000 </v>
   <v>       0.00000000       0.31707317       0.50000000 </v>
   <v>       0.00000000       0.32926829       0.50000000 </v>
   <v>       0.00000000       0.34146341       0.50000000 </v>
   <v>       0.00000000       0.35365854       0.50000000 </v>
   <v>       0.00000000       0.36585366       0.50000000 </v>
   <v>       0.00000000       0.37804878       0.50000000 </v>
   <v>       0.00000000       0.39024390       0.50000000 </v>
   <v>       0.00000000       0.40243902       0.50000000 </v>
   <v>       0.00000000       0.41463415       0.50000000 </v>
   <v>       0.00000000       0.42682927       0.50000000 </v>
   <v>       0.00000000       0.43902439       0.50000000 </v>
   <v>       0.00000000       0.45121951       0.50000000 </v>
   <v>       0.00000000       0.46341463       0.50000000 </v>
   <v>       0.00000000       0.47560976       0.50000000 </v>
   <v>       0.00000000       0.48780488       0.50000000 </v>
   <v>       0.00000000       0.50000000       0.50000000 </v>
   <v>       0.01219512       0.50000000       0.50000000 </v>
   <v>       0.02439024       0.50000000       0.50000000 </v>
   <v>       0.03658537       0.50000000       0.50000000 </v>
   <v>       0.04878049       0.50000000       0.50000000 </v>
   <v>       0.06097561       0.50000000       0.50000000 </v>
   <v>       0.07317073       0.50000000       0.50000000 </v>
   <v>       0.08536585       0.50000000       0.50000000 </v>
   <v>       0.09756098       0.50000000       0.50000000 </v>
   <v>       0.10975610       0.50000000       0.50000000 </v>
   <v>       0.12195122       0.50000000       0.50000000 </v>
   <v>       0.13414634       0.50000000       0.50000000 </v>
   <v>       0.14634146       0.50000000       0.50000000 </v>
   <v>       0.15853659       0.50000000       0.50000000 </v>
   <v>       0.17073171       0.50000000       0.50000000 </v>
   <v>       0.18292683       0.50000000       0.50000000 </v>
   <v>       0.19512195       0.50000000       0.50000000 </v>
   <v>       0.20731707       0.50000000       0.50000000 </v>
   <v>       0.21951220       0.50000000       0.50000000 </v>
   <v>       0.23170732       0.50000000       0.50000000 </v>
   <v>       0.24390244       0.50000000       0.50000000 </v>
   <v>       0.25609756       0.50000000       0.50000000 </v>
   <v>       0.26829268       0.50000000       0.50000000 </v>
   <v>       0.28048780       0.50000000       0.50000000 </v>
  </varray>
  <varray name="weights" >
   <v>       0.00308642 </v>
   <v>       0.01234568 </v>
   <v>       0.01234568 </v>
   <v>       0.00617284 </v>
   <v>       0.01234568 </v>
   <v>       0.02469136 </v>
   <v>       0.01234568 </v>
   <v>       0.01234568 </v>
   <v>       0.01234568 </v>
   <v>       0.00308642 </v>
   <v>       0.00617284 </v>
   <v>       0.02469136 </v>
   <v>       0.02469136 </v>
   <v>       0.01234568 </v>
   <v>       0.02469136 </v>
   <v>       0.04938272 </v>
   <v>       0.02469136 </v>
   <v>       0.02469136 </v>
   <v>       0.02469136 </v>
   <v>       0.00617284 </v>
   <v>       0.00617284 </v>
   <v>       0.02469136 </v>
   <v>       0.02469136 </v>
   <v>       0.01234568 </v>
   <v>       0.02469136 </v>
   <v>       0.04938272 </v>
   <v>       0.02469136 </v>
   <v>       0.02469136 </v>
   <v>       0.02469136 </v>
   <v>       0.00617284 </v>
   <v>       0.00617284 </v>
   <v>       0.02469136 </v>
   <v>       0.02469136 </v>
   <v>       0.01234568 </v>
   <v>       0.02469136 </v>
   <v>       0.04938272 </v>
   <v>       0.02469136 </v>
   <v>       0.02469136 </v>
   <v>       0.02469136 </v>
   <v>       0.00617284 </v>
   <v>       0.00617284 </v>
   <v>       0.02469136 </v>
   <v>       0.02469136 </v>
   <v>       0.01234568 </v>
   <v>       0.02469136 </v>
   <v>       0.04938272 </v>
   <v>       0.02469136 </v>
   <v>       0.02469136 </v>
   <v>       0.02469136 </v>
   <v>       0.00617284 </v>
   <v>       0.00000000 </v>
   <v>       0.00000000 </v>
   <v>       0.00000000 </v>
   <v>       0.00000000 </v>
   <v>       0.00000000 </v>
   <v>       0.00000000 </v>
   <v>       0.00000000 </v>
   <v>       0.00000000 </v>
   <v>       0.00000000 </v>
   <v>       0.00000000 </v>
   <v>       0.00000000 </v>
   <v>       0.00000000 </v>
   <v>       0.00000000 </v>
   <v>       0.00000000 </v>
   <v>       0.00000000 </v>
   <v>       0.00000000 </v>
   <v>       0.00000000 </v>
   <v>       0.00000000 </v>
   <v>       0.00000000 </v>
   <v>       0.00000000 </v>
   <v>       0.00000000 </v>
   <v>       0.00000000 </v>
   <v>       0.00000000 </v>
   <v>       0.00000000 </v>
   <v>       0.00000000 </v>
   <v>       0.00000000 </v>
   <v>       0.00000000 </v>
   <v>       0.00000000 </v>
   <v>       0.00000000 </v>
   <v>       0.00000000 </v>
   <v>       0.00000000 </v>
   <v>       0.00000000 </v>
   <v>       0.00000000 </v>
   <v>       0.00000000 </v>
   <v>       0.00000000 </v>
   <v>       0.00000000 </v>
   <v>       0.00000000 </v>
   <v>       0.00000000 </v>
   <v>       0.00000000 </v>
   <v>       0.00000000 </v>
   <v>       0.00000000 </v>
   <v>       0.00000000 </v>
   <v>       0.00000000 </v>
   <v>       0.00000000 </v>
   <v>       0.00000000 </v>
   <v>       0.00000000 </v>
   <v>       0.00000000 </v>
   <v>       0.00000000 </v>
   <v>       0.00000000 </v>
   <v>       0.00000000 </v>
   <v>       0.00000000 </v>
   <v>       0.00000000 </v>
   <v>       0.00000000 </v>
   <v>       0.00000000 </v>
   <v>       0.00000000 </v>
   <v>       0.00000000 </v>
   <v>       0.00000000 </v>
   <v>       0.00000000 </v>
   <v>       0.00000000 </v>
   <v>       0.00000000 </v>
   <v>       0.00000000 </v>
   <v>       0.00000000 </v>
   <v>       0.00000000 </v>
   <v>       0.00000000 </v>
   <v>       0.00000000 </v>
   <v>       0.00000000 </v>
   <v>       0.00000000 </v>
   <v>       0.00000000 </v>
   <v>       0.00000000 </v>
   <v>       0.00000000 </v>
   <v>       0.00000000 </v>
   <v>       0.00000000 </v>
   <v>       0.00000000 </v>
   <v>       0.00000000 </v>
   <v>       0.00000000 </v>
   <v>       0.00000000 </v>
   <v>       0.00000000 </v>
   <v>       0.00000000 </v>
   <v>       0.00000000 </v>
   <v>       0.00000000 </v>
   <v>       0.00000000 </v>
   <v>       0.00000000 </v>
   <v>       0.00000000 </v>
   <v>       0.00000000 </v>
   <v>       0.00000000 </v>
   <v>       0.00000000 </v>
   <v>       0.00000000 </v>
   <v>       0.00000000 </v>
   <v>       0.00000000 </v>
   <v>       0.00000000 </v>
  </varray>
 </kpoints>
 <parameters>
  <separator name="general" >
   <i type="string" name="SYSTEM">unknown system</i>
   <i type="logical" name="LCOMPAT"> F  </i>
  </separator>
  <separator name="electronic" >
   <i type="string" name="PREC">accura</i>
   <i name="ENMAX">    500.00000000</i>
   <i name="ENAUG">    605.39200000</i>
   <i name="EDIFF">      0.00000100</i>
   <i type="int" name="IALGO">    58</i>
   <i type="int" name="IWAVPR">    10</i>
   <i type="int" name="NBANDS">    96</i>
   <i type="int" name="NBANDSLOW">    -1</i>
   <i type="int" name="NBANDSHIGH">    -1</i>
   <i name="NELECT">     44.00000000</i>
   <i type="int" name="TURBO">     0</i>
   <i type="int" name="IRESTART">     0</i>
   <i type="int" name="NREBOOT">     0</i>
   <i type="int" name="NMIN">     0</i>
   <i name="EREF">      0.00000000</i>
   <separator name="electronic smearing" >
    <i type="int" name="ISMEAR">     0</i>
    <i name="SIGMA">      0.05000000</i>
    <i name="KSPACING">      0.50000000</i>
    <i type="logical" name="KGAMMA"> T  </i>
    <i type="logical" name="KBLOWUP"> T  </i>
   </separator>
   <separator name="electronic projectors" >
    <i type="logical" name="LREAL"> F  </i>
    <v name="ROPT">      0.00000000      0.00000000</v>
    <i type="int" name="LMAXPAW">  -100</i>
    <i type="int" name="LMAXMIX">     2</i>
    <i type="logical" name="NLSPLINE"> F  </i>
   </separator>
   <separator name="electronic startup" >
    <i type="int" name="ISTART">     0</i>
    <i type="int" name="ICHARG">    11</i>
    <i type="int" name="INIWAV">     1</i>
   </separator>
   <separator name="electronic spin" >
    <i type="int" name="ISPIN">     1</i>
    <i type="logical" name="LNONCOLLINEAR"> F  </i>
    <v name="MAGMOM">      1.00000000      1.00000000      1.00000000      1.00000000      1.00000000      1.00000000</v>
    <i name="NUPDOWN">     -1.00000000</i>
    <i type="logical" name="LSORBIT"> F  </i>
    <v name="SAXIS">      0.00000000      0.00000000      1.00000000</v>
    <i type="logical" name="LSPIRAL"> F  </i>
    <v name="QSPIRAL">      0.00000000      0.00000000      0.00000000</v>
    <i type="logical" name="LZEROZ"> F  </i>
   </separator>
   <separator name="electronic exchange-correlation" >
    <i type="logical" name="LASPH"> F  </i>
    <i type="logical" name="LMETAGGA"> F  </i>
   </separator>
   <separator name="electronic convergence" >
    <i type="int" name="NELM">    60</i>
    <i type="int" name="NELMDL">    -5</i>
    <i type="int" name="NELMIN">     2</i>
    <i name="ENINI">    500.00000000</i>
    <separator name="electronic convergence detail" >
     <i type="logical" name="LDIAG"> T  </i>
     <i type="logical" name="LSUBROT"> F  </i>
     <i name="WEIMIN">      0.00000000</i>
     <i name="EBREAK">      0.00000000</i>
     <i name="DEPER">      0.30000000</i>
     <i type="int" name="NRMM">     4</i>
     <i name="TIME">      0.40000000</i>
    </separator>
   </separator>
   <separator name="electronic mixer" >
    <i name="AMIX">      0.40000000</i>
    <i name="BMIX">      1.00000000</i>
    <i name="AMIN">      0.10000000</i>
    <i name="AMIX_MAG">      1.60000000</i>
    <i name="BMIX_MAG">      1.00000000</i>
    <separator name="electronic mixer details" >
     <i type="int" name="IMIX">     4</i>
     <i type="logical" name="MIXFIRST"> F  </i>
     <i type="int" name="MAXMIX">   -45</i>
     <i name="WC">    100.00000000</i>
     <i type="int" name="INIMIX">     1</i>
     <i type="int" name="MIXPRE">     1</i>
     <i type="int" name="MREMOVE">     5</i>
    </separator>
   </separator>
   <separator name="electronic dipolcorrection" >
    <i type="logical" name="LDIPOL"> F  </i>
    <i type="logical" name="LMONO"> F  </i>
    <i type="int" name="IDIPOL">     0</i>
    <i name="EPSILON">      1.00000000</i>
    <v name="DIPOL">   -100.00000000   -100.00000000   -100.00000000</v>
    <i name="EFIELD">      0.00000000</i>
   </separator>
  </separator>
  <separator name="grids" >
   <i type="int" name="NGX">    36</i>
   <i type="int" name="NGY">    36</i>
   <i type="int" name="NGZ">    24</i>
   <i type="int" name="NGXF">    72</i>
   <i type="int" name="NGYF">    72</i>
   <i type="int" name="NGZF">    48</i>
   <i type="logical" name="ADDGRID"> F  </i>
  </separator>
  <separator name="ionic" >
   <i type="int" name="NSW">     0</i>
   <i type="int" name="IBRION">    -1</i>
   <i type="int" name="MDALGO">     0</i>
   <i type="int" name="ISIF">     2</i>
   <i name="PSTRESS">      0.00000000</i>
   <i name="EDIFFG">     -0.01000000</i>
   <i type="int" name="NFREE">     1</i>
   <i name="POTIM">      0.10000000</i>
   <i name="SMASS">     -3.00000000</i>
   <i name="SCALEE">      1.00000000</i>
  </separator>
  <separator name="ionic md" >
   <i name="TEBEG">      0.00010000</i>
   <i name="TEEND">      0.00010000</i>
   <i type="int" name="NBLOCK">     1</i>
   <i type="int" name="KBLOCK">     1</i>
   <i type="int" name="NPACO">   256</i>
   <i name="APACO">     16.00000000</i>
  </separator>
  <separator name="symmetry" >
   <i type="int" name="ISYM">     2</i>
   <i name="SYMPREC">      0.00001000</i>
  </separator>
  <separator name="dos" >
   <i type="int" name="LORBIT">     0</i>
   <v name="RWIGS">     -1.00000000     -1.00000000</v>
   <i type="int" name="NEDOS">   301</i>
   <i name="EMIN">     10.00000000</i>
   <i name="EMAX">    -10.00000000</i>
   <i name="EFERMI">      0.00000000</i>
  </separator>
  <separator name="writing" >
   <i type="int" name="NWRITE">     2</i>
   <i type="logical" name="LWAVE"> F  </i>
   <i type="logical" name="LDOWNSAMPLE"> F  </i>
   <i type="logical" name="LCHARG"> T  </i>
   <i type="logical" name="LPARD"> F  </i>
   <i type="logical" name="LVTOT"> F  </i>
   <i type="logical" name="LVHAR"> F  </i>
   <i type="logical" name="LELF"> F  </i>
   <i type="logical" name="LOPTICS"> F  </i>
   <v name="STM">      0.00000000      0.00000000      0.00000000      0.00000000      0.00000000      0.00000000      0.00000000</v>
  </separator>
  <separator name="performance" >
   <i type="int" name="NPAR">    16</i>
   <i type="int" name="NSIM">     4</i>
   <i type="int" name="NBLK">    -1</i>
   <i type="logical" name="LPLANE"> T  </i>
   <i type="logical" name="LSCALAPACK"> T  </i>
   <i type="logical" name="LSCAAWARE"> T  </i>
   <i type="logical" name="LSCALU"> F  </i>
   <i type="logical" name="LASYNC"> F  </i>
   <i type="logical" name="LORBITALREAL"> F  </i>
  </separator>
  <separator name="miscellaneous" >
   <i type="int" name="IDIOT">     3</i>
   <i type="int" name="PHON_NSTRUCT">    -1</i>
   <i type="logical" name="LMUSIC"> F  </i>
   <v name="POMASS">     47.88000000     16.00000000</v>
   <v name="DARWINR">      0.00000000      0.00000000</v>
   <v name="DARWINV">      1.00000000      1.00000000</v>
   <i type="logical" name="LCORR"> T  </i>
  </separator>
  <i type="logical" name="GGA_COMPAT"> T  </i>
  <i type="logical" name="LBERRY"> F  </i>
  <i type="int" name="ICORELEVEL">     0</i>
  <i type="logical" name="LDAU"> F  </i>
  <i type="int" name="I_CONSTRAINED_M">     0</i>
  <separator name="electronic exchange-correlation" >
   <i type="string" name="GGA">PS</i>
   <i type="int" name="VOSKOWN">     0</i>
   <i type="logical" name="LHFCALC"> F  </i>
   <i type="string" name="PRECFOCK"></i>
   <i type="logical" name="LSYMGRAD"> F  </i>
   <i type="logical" name="LHFONE"> F  </i>
   <i type="logical" name="LRHFCALC"> F  </i>
   <i type="logical" name="LTHOMAS"> F  </i>
   <i type="logical" name="LMODELHF"> F  </i>
   <i type="logical" name="LFOCKACE"> F  </i>
   <i name="ENCUT4O">     -1.00000000</i>
   <i type="int" name="EXXOEP">     0</i>
   <i type="int" name="FOURORBIT">     0</i>
   <i name="AEXX">      0.00000000</i>
   <i name="HFALPHA">      0.00000000</i>
   <i name="MCALPHA">      0.00000000</i>
   <i name="ALDAX">      1.00000000</i>
   <i name="AGGAX">      1.00000000</i>
   <i name="ALDAC">      1.00000000</i>
   <i name="AGGAC">      1.00000000</i>
   <i type="int" name="NKREDX">     1</i>
   <i type="int" name="NKREDY">     1</i>
   <i type="int" name="NKREDZ">     1</i>
   <i type="logical" name="SHIFTRED"> F  </i>
   <i type="logical" name="ODDONLY"> F  </i>
   <i type="logical" name="EVENONLY"> F  </i>
   <i type="int" name="LMAXFOCK">     0</i>
   <i type="int" name="NMAXFOCKAE">     0</i>
   <i type="logical" name="LFOCKAEDFT"> F  </i>
   <i name="HFSCREEN">      0.00000000</i>
   <i name="HFSCREENC">      0.00000000</i>
   <i type="int" name="NBANDSGWLOW">     0</i>
  </separator>
  <separator name="vdW DFT" >
   <i type="logical" name="LUSE_VDW"> F  </i>
   <i name="Zab_VDW">     -0.84910000</i>
   <i name="PARAM1">      0.12340000</i>
   <i name="PARAM2">      1.00000000</i>
   <i name="PARAM3">      0.00000000</i>
  </separator>
  <separator name="model GW" >
   <i type="int" name="MODEL_GW">     0</i>
   <i name="MODEL_EPS0">      6.22874480</i>
   <i name="MODEL_ALPHA">      1.00000000</i>
  </separator>
  <separator name="linear response parameters" >
   <i type="logical" name="LEPSILON"> F  </i>
   <i type="logical" name="LRPA"> F  </i>
   <i type="logical" name="LNABLA"> F  </i>
   <i type="logical" name="LVEL"> F  </i>
   <i type="int" name="KINTER">     0</i>
   <i name="CSHIFT">      0.10000000</i>
   <i name="OMEGAMAX">     -1.00000000</i>
   <i name="DEG_THRESHOLD">      0.00200000</i>
   <i name="RTIME">     -0.10000000</i>
   <i name="WPLASMAI">      0.00000000</i>
   <v name="DFIELD">      0.00000000      0.00000000      0.00000000</v>
   <v name="WPLASMA">      0.00000000      0.00000000      0.00000000      0.00000000      0.00000000      0.00000000      0.00000000      0.00000000      0.00000000</v>
  </separator>
  <separator name="orbital magnetization" >
   <i type="logical" name="NUCIND"> F  </i>
   <v name="MAGPOS">      0.00000000      0.00000000      0.00000000</v>
   <i type="logical" name="LNICSALL"> T  </i>
   <i type="logical" name="ORBITALMAG"> F  </i>
   <i type="logical" name="LMAGBLOCH"> F  </i>
   <i type="logical" name="LCHIMAG"> F  </i>
   <i type="logical" name="LGAUGE"> T  </i>
   <i type="int" name="MAGATOM">     0</i>
   <v name="MAGDIPOL">      0.00000000      0.00000000      0.00000000</v>
   <v name="AVECCONST">      0.00000000      0.00000000      0.00000000</v>
  </separator>
  <separator name="response functions" >
   <i type="logical" name="LFINITE_TEMPERATURE"> F  </i>
   <i type="logical" name="LADDER"> F  </i>
   <i type="logical" name="LRPAFORCE"> F  </i>
   <i type="logical" name="LFXC"> F  </i>
   <i type="logical" name="LHARTREE"> T  </i>
   <i type="int" name="IBSE">     0</i>
   <v type="int" name="KPOINT">    -1     0     0     0</v>
   <i type="logical" name="LTCTC"> F  </i>
   <i type="logical" name="LTCTE"> F  </i>
   <i type="logical" name="LTETE"> F  </i>
   <i type="logical" name="LTRIPLET"> F  </i>
   <i type="logical" name="LFXCEPS"> F  </i>
   <i type="logical" name="LFXHEG"> F  </i>
   <i type="int" name="NATURALO">     2</i>
   <i type="logical" name="LHOLEGF"> F  </i>
   <i type="logical" name="L2ORDER"> F  </i>
   <i type="logical" name="LDMP1"> F  </i>
   <i type="logical" name="LMP2LT"> F  </i>
   <i type="logical" name="LSMP2LT"> F  </i>
   <i type="logical" name="LGWLF"> F  </i>
   <i name="ENCUTGW">     -2.00000000</i>
   <i name="ENCUTGWSOFT">     -2.00000000</i>
   <i name="ENCUTLF">     -1.00000000</i>
   <i type="logical" name="LESF_SPLINES"> F  </i>
   <i type="int" name="LMAXMP2">    -1</i>
   <i name="SCISSOR">      0.00000000</i>
   <i type="int" name="NOMEGA">     0</i>
   <i type="int" name="NOMEGAR">     0</i>
   <i type="int" name="NBANDSGW">    -1</i>
   <i type="int" name="NBANDSO">    -1</i>
   <i type="int" name="NBANDSV">    -1</i>
   <i type="int" name="NELM">     1</i>
   <i type="int" name="NELMHF">     1</i>
   <i type="int" name="DIM">     3</i>
   <i type="int" name="IESPILON">     4</i>
   <i type="int" name="ANTIRES">     0</i>
   <i name="OMEGAMAX">    -30.00000000</i>
   <i name="OMEGAMIN">    -30.00000000</i>
   <i name="OMEGATL">   -200.00000000</i>
   <i type="int" name="OMEGAGRID">     0</i>
   <i name="CSHIFT">     -0.10000000</i>
   <i type="logical" name="LSELFENERGY"> F  </i>
   <i type="logical" name="LSPECTRAL"> F  </i>
   <i type="logical" name="LSPECTRALGW"> F  </i>
   <i type="logical" name="LSINGLES"> F  </i>
   <i type="logical" name="LFERMIGW"> F  </i>
   <i type="logical" name="ODDONLYGW"> F  </i>
   <i type="logical" name="EVENONLYGW"> F  </i>
   <i type="int" name="NKREDLFX">     1</i>
   <i type="int" name="NKREDLFY">     1</i>
   <i type="int" name="NKREDLFZ">     1</i>
   <i type="int" name="MAXMEM">  2800</i>
   <i type="int" name="TELESCOPE">     0</i>
   <i type="int" name="NTAUPAR">    -1</i>
   <i type="int" name="NOMEGAPAR">    -1</i>
   <i name="DAMP_NEWTON">      0.80000001</i>
   <i name="LAMBDA">      1.00000000</i>
  </separator>
  <separator name="External order field" >
   <i name="OFIELD_KAPPA">      0.00000000</i>
   <v name="OFIELD_K">      0.00000000      0.00000000      0.00000000</v>
   <i name="OFIELD_Q6_NEAR">      0.00000000</i>
   <i name="OFIELD_Q6_FAR">      0.00000000</i>
   <i name="OFIELD_A">      0.00000000</i>
  </separator>
 </parameters>
 <atominfo>
  <atoms>       6 </atoms>
  <types>       2 </types>
  <array name="atoms" >
   <dimension dim="1">ion</dimension>
   <field type="string">element</field>
   <field type="int">atomtype</field>
   <set>
    <rc><c>Ti</c><c>   1</c></rc>
    <rc><c>Ti</c><c>   1</c></rc>
    <rc><c>O </c><c>   2</c></rc>
    <rc><c>O </c><c>   2</c></rc>
    <rc><c>O </c><c>   2</c></rc>
    <rc><c>O </c><c>   2</c></rc>
   </set>
  </array>
  <array name="atomtypes" >
   <dimension dim="1">type</dimension>
   <field type="int">atomspertype</field>
   <field type="string">element</field>
   <field>mass</field>
   <field>valence</field>
   <field type="string">pseudopotential</field>
   <set>
    <rc><c>   2</c><c>Ti</c><c>     47.88000000</c><c>     10.00000000</c><c>  PAW_PBE Ti_pv 07Sep2000               </c></rc>
    <rc><c>   4</c><c>O </c><c>     16.00000000</c><c>      6.00000000</c><c>  PAW_PBE O 08Apr2002                   </c></rc>
   </set>
  </array>
 </atominfo>
 <structure name="initialpos" >
  <crystal>
   <varray name="basis" >
    <v>       4.60094756      -0.00000000       0.00000000 </v>
    <v>       0.00000000       4.60094756       0.00000000 </v>
    <v>      -0.00000000      -0.00000000       2.94242885 </v>
   </varray>
   <i name="volume">     62.28744797 </i>
   <varray name="rec_basis" >
    <v>       0.21734653      -0.00000000       0.00000000 </v>
    <v>       0.00000000       0.21734653       0.00000000 </v>
    <v>      -0.00000000      -0.00000000       0.33985529 </v>
   </varray>
  </crystal>
  <varray name="positions" >
   <v>       0.50000000       0.50000000       0.50000000 </v>
   <v>       0.00000000       0.00000000       0.00000000 </v>
   <v>       0.19567008       0.80432992       0.50000000 </v>
   <v>       0.80432992       0.19567008       0.50000000 </v>
   <v>       0.30432992       0.30432992       0.00000000 </v>
   <v>       0.69567008       0.69567008       0.00000000 </v>
  </varray>
 </structure>
 <calculation>
  <scstep>
   <time name="total">    4.33    4.42</time>
   <energy>
    <i name="alphaZ">    219.50783828 </i>
    <i name="ewald">  -2936.72308892 </i>
    <i name="hartreedc">   -862.50112224 </i>
    <i name="XCdc">    186.29543585 </i>
    <i name="pawpsdc">   4935.12184278 </i>
    <i name="pawaedc">  -4951.05196594 </i>
    <i name="eentropy">     -0.00071510 </i>
    <i name="bandstr">    -25.95569343 </i>
    <i name="atom">   3805.83765485 </i>
    <i name="e_fr_energy">    370.53018614 </i>
    <i name="e_wo_entrp">    370.53090124 </i>
    <i name="e_0_energy">    370.53054369 </i>
   </energy>
  </scstep>
  <scstep>
   <time name="total">    4.21    4.22</time>
   <energy>
    <i name="e_fr_energy">    -29.74131204 </i>
    <i name="e_wo_entrp">    -29.74131204 </i>
    <i name="e_0_energy">    -29.74131204 </i>
   </energy>
  </scstep>
  <scstep>
   <time name="total">    5.17    5.19</time>
   <energy>
    <i name="e_fr_energy">    -55.75276821 </i>
    <i name="e_wo_entrp">    -55.75276821 </i>
    <i name="e_0_energy">    -55.75276821 </i>
   </energy>
  </scstep>
  <scstep>
   <time name="total">    4.90    4.90</time>
   <energy>
    <i name="e_fr_energy">    -55.88763146 </i>
    <i name="e_wo_entrp">    -55.88763146 </i>
    <i name="e_0_energy">    -55.88763146 </i>
   </energy>
  </scstep>
  <scstep>
   <time name="total">    4.72    4.74</time>
   <energy>
    <i name="e_fr_energy">    -55.88782260 </i>
    <i name="e_wo_entrp">    -55.88782260 </i>
    <i name="e_0_energy">    -55.88782260 </i>
   </energy>
  </scstep>
  <scstep>
   <time name="total">    4.93    4.95</time>
   <energy>
    <i name="alphaZ">    219.50783828 </i>
    <i name="ewald">  -2936.72308892 </i>
    <i name="hartreedc">   -862.50112224 </i>
    <i name="XCdc">    186.29543585 </i>
    <i name="pawpsdc">   4935.12184278 </i>
    <i name="pawaedc">  -4951.05196594 </i>
    <i name="eentropy">     -0.00000000 </i>
    <i name="bandstr">   -452.37441726 </i>
    <i name="atom">   3805.83765485 </i>
    <i name="e_fr_energy">    -55.88782260 </i>
    <i name="e_wo_entrp">    -55.88782260 </i>
    <i name="e_0_energy">    -55.88782260 </i>
   </energy>
  </scstep>
  <structure>
   <crystal>
    <varray name="basis" >
     <v>       4.60094756      -0.00000000       0.00000000 </v>
     <v>       0.00000000       4.60094756       0.00000000 </v>
     <v>      -0.00000000      -0.00000000       2.94242885 </v>
    </varray>
    <i name="volume">     62.28744797 </i>
    <varray name="rec_basis" >
     <v>       0.21734653      -0.00000000       0.00000000 </v>
     <v>       0.00000000       0.21734653       0.00000000 </v>
     <v>      -0.00000000      -0.00000000       0.33985529 </v>
    </varray>
   </crystal>
   <varray name="positions" >
    <v>       0.50000000       0.50000000       0.50000000 </v>
    <v>       0.00000000       0.00000000       0.00000000 </v>
    <v>       0.19567008       0.80432992       0.50000000 </v>
    <v>       0.80432992       0.19567008       0.50000000 </v>
    <v>       0.30432992       0.30432992       0.00000000 </v>
    <v>       0.69567008       0.69567008       0.00000000 </v>
   </varray>
  </structure>
  <varray name="forces" >
   <v>       0.00000000      -0.00000000       0.00000000 </v>
   <v>       0.00000000       0.00000000       0.00000000 </v>
   <v>       0.00636927      -0.00636927       0.00000000 </v>
   <v>      -0.00636927       0.00636927      -0.00000000 </v>
   <v>      -0.00636927      -0.00636927      -0.00000000 </v>
   <v>       0.00636927       0.00636927       0.00000000 </v>
  </varray>
  <varray name="stress" >
   <v>      -1.55528575      -0.00000000       0.00000000 </v>
   <v>      -0.00000000      -1.55528575       0.00000000 </v>
   <v>       0.00000000       0.00000000       1.94933607 </v>
  </varray>
  <energy>
   <i name="e_fr_energy">    -55.88782260 </i>
   <i name="e_wo_entrp">    -55.88782260 </i>
   <i name="e_0_energy">    -55.88782260 </i>
  </energy>
  <time name="totalsc">   29.65   29.85</time>
  <eigenvalues>
   <array>
    <dimension dim="1">band</dimension>
    <dimension dim="2">kpoint</dimension>
    <dimension dim="3">spin</dimension>
    <field>eigene</field>
    <field>occ</field>
    <set>
     <set comment="spin 1">
      <set comment="kpoint 1">
       <r>  -29.7174    1.0000 </r>
       <r>  -29.7174    1.0000 </r>
       <r>  -29.5487    1.0000 </r>
       <r>  -29.5487    1.0000 </r>
       <r>  -29.5083    1.0000 </r>
       <r>  -29.4744    1.0000 </r>
       <r>  -14.7936    1.0000 </r>
       <r>  -13.5702    1.0000 </r>
       <r>  -12.8051    1.0000 </r>
       <r>  -12.8051    1.0000 </r>
       <r>   -2.4643    1.0000 </r>
       <r>   -2.0142    1.0000 </r>
       <r>   -1.6256    1.0000 </r>
       <r>   -0.4368    1.0000 </r>
       <r>   -0.4368    1.0000 </r>
       <r>    0.7899    1.0000 </r>
       <r>    0.7899    1.0000 </r>
       <r>    1.4426    1.0000 </r>
       <r>    2.7314    1.0000 </r>
       <r>    2.9569    1.0000 </r>
       <r>    2.9569    1.0000 </r>
       <r>    3.3891    1.0000 </r>
       <r>    5.1956    0.0000 </r>
       <r>    5.4707    0.0000 </r>
       <r>    5.7706    0.0000 </r>
       <r>    5.8634    0.0000 </r>
       <r>    5.8634    0.0000 </r>
       <r>    7.7836    0.0000 </r>
       <r>    7.9798    0.0000 </r>
       <r>   10.0256    0.0000 </r>
       <r>   10.0256    0.0000 </r>
       <r>   11.0076    0.0000 </r>
       <r>   11.1334    0.0000 </r>
       <r>   14.9251    0.0000 </r>
       <r>   14.9251    0.0000 </r>
       <r>   17.7035    0.0000 </r>
       <r>   18.9228    0.0000 </r>
       <r>   19.6828    0.0000 </r>
       <r>   21.4402    0.0000 </r>
       <r>   22.7077    0.0000 </r>
       <r>   22.7077    0.0000 </r>
       <r>   22.8335    0.0000 </r>
       <r>   24.9120    0.0000 </r>
       <r>   25.2449    0.0000 </r>
       <r>   25.2451    0.0000 </r>
       <r>   26.4155    0.0000 </r>
       <r>   27.4371    0.0000 </r>
       <r>   27.4371    0.0000 </r>
       <r>   28.3356    0.0000 </r>
       <r>   29.0172    0.0000 </r>
       <r>   29.0172    0.0000 </r>
       <r>   29.1541    0.0000 </r>
       <r>   29.6641    0.0000 </r>
       <r>   29.6641    0.0000 </r>
       <r>   30.1654    0.0000 </r>
       <r>   32.1814    0.0000 </r>
       <r>   34.7633    0.0000 </r>
       <r>   35.4250    0.0000 </r>
       <r>   35.7950    0.0000 </r>
       <r>   35.7950    0.0000 </r>
       <r>   35.9307    0.0000 </r>
       <r>   37.4244    0.0000 </r>
       <r>   37.5460    0.0000 </r>
       <r>   37.5460    0.0000 </r>
       <r>   39.3142    0.0000 </r>
       <r>   40.4585    0.0000 </r>
       <r>   40.4585    0.0000 </r>
       <r>   40.9066    0.0000 </r>
       <r>   43.0628    0.0000 </r>
       <r>   43.6137    0.0000 </r>
       <r>   43.6137    0.0000 </r>
       <r>   44.2730    0.0000 </r>
       <r>   44.6464    0.0000 </r>
       <r>   44.6481    0.0000 </r>
       <r>   46.2236    0.0000 </r>
       <r>   46.2236    0.0000 </r>
       <r>   46.9845    0.0000 </r>
       <r>   47.1168    0.0000 </r>
       <r>   47.1168    0.0000 </r>
       <r>   47.5669    0.0000 </r>
       <r>   49.7935    0.0000 </r>
       <r>   50.0161    0.0000 </r>
       <r>   51.7887    0.0000 </r>
       <r>   52.9722    0.0000 </r>
       <r>   52.9722    0.0000 </r>
       <r>   53.4525    0.0000 </r>
       <r>   55.2129    0.0000 </r>
       <r>   55.6959    0.0000 </r>
       <r>   55.6970    0.0000 </r>
       <r>   56.2082    0.0000 </r>
       <r>   56.2084    0.0000 </r>
       <r>   56.8417    0.0000 </r>
       <r>   57.2986    0.0000 </r>
       <r>   57.3086    0.0000 </r>
       <r>   57.3752    0.0000 </r>
       <r>   58.3082    0.0000 </r>
      </set>
      <set comment="kpoint 2">
       <r>  -29.7084    1.0000 </r>
       <r>  -29.7076    1.0000 </r>
       <r>  -29.5597    1.0000 </r>
       <r>  -29.5588    1.0000 </r>
       <r>  -29.5061    1.0000 </r>
       <r>  -29.4767    1.0000 </r>
       <r>  -14.6923    1.0000 </r>
       <r>  -13.5776    1.0000 </r>
       <r>  -12.9048    1.0000 </r>
       <r>  -12.8441    1.0000 </r>
       <r>   -2.2825    1.0000 </r>
       <r>   -1.9043    1.0000 </r>
       <r>   -1.4414    1.0000 </r>
       <r>   -0.4254    1.0000 </r>
       <r>   -0.4174    1.0000 </r>
       <r>    0.6185    1.0000 </r>
       <r>    0.7459    1.0000 </r>
       <r>    1.4550    1.0000 </r>
       <r>    2.4458    1.0000 </r>
       <r>    2.5495    1.0000 </r>
       <r>    2.7284    1.0000 </r>
       <r>    3.2922    1.0000 </r>
       <r>    5.3521    0.0000 </r>
       <r>    5.6719    0.0000 </r>
       <r>    5.9750    0.0000 </r>
       <r>    5.9763    0.0000 </r>
       <r>    6.0210    0.0000 </r>
       <r>    7.8303    0.0000 </r>
       <r>    8.0014    0.0000 </r>
       <r>    9.9313    0.0000 </r>
       <r>    9.9516    0.0000 </r>
       <r>   10.8483    0.0000 </r>
       <r>   11.4606    0.0000 </r>
       <r>   14.8283    0.0000 </r>
       <r>   15.1336    0.0000 </r>
       <r>   17.7462    0.0000 </r>
       <r>   18.7289    0.0000 </r>
       <r>   19.5551    0.0000 </r>
       <r>   21.3177    0.0000 </r>
       <r>   22.6421    0.0000 </r>
       <r>   23.0890    0.0000 </r>
       <r>   23.1111    0.0000 </r>
       <r>   25.1716    0.0000 </r>
       <r>   25.2446    0.0000 </r>
       <r>   25.2451    0.0000 </r>
       <r>   25.9906    0.0000 </r>
       <r>   26.2718    0.0000 </r>
       <r>   26.5161    0.0000 </r>
       <r>   27.5074    0.0000 </r>
       <r>   29.0904    0.0000 </r>
       <r>   29.1671    0.0000 </r>
       <r>   29.3225    0.0000 </r>
       <r>   29.8262    0.0000 </r>
       <r>   30.0941    0.0000 </r>
       <r>   32.1876    0.0000 </r>
       <r>   32.3979    0.0000 </r>
       <r>   34.2365    0.0000 </r>
       <r>   35.1072    0.0000 </r>
       <r>   35.6373    0.0000 </r>
       <r>   35.8409    0.0000 </r>
       <r>   36.4346    0.0000 </r>
       <r>   37.2762    0.0000 </r>
       <r>   37.7827    0.0000 </r>
       <r>   38.6536    0.0000 </r>
       <r>   39.2969    0.0000 </r>
       <r>   40.5858    0.0000 </r>
       <r>   40.7210    0.0000 </r>
       <r>   41.3821    0.0000 </r>
       <r>   42.8425    0.0000 </r>
       <r>   42.8621    0.0000 </r>
       <r>   43.0253    0.0000 </r>
       <r>   43.8331    0.0000 </r>
       <r>   44.2836    0.0000 </r>
       <r>   44.6552    0.0000 </r>
       <r>   45.8521    0.0000 </r>
       <r>   45.9792    0.0000 </r>
       <r>   46.9709    0.0000 </r>
       <r>   47.2150    0.0000 </r>
       <r>   48.1231    0.0000 </r>
       <r>   48.2095    0.0000 </r>
       <r>   49.4258    0.0000 </r>
       <r>   50.8050    0.0000 </r>
       <r>   51.9238    0.0000 </r>
       <r>   52.3775    0.0000 </r>
       <r>   53.3643    0.0000 </r>
       <r>   53.5436    0.0000 </r>
       <r>   53.5566    0.0000 </r>
       <r>   54.2680    0.0000 </r>
       <r>   55.2940    0.0000 </r>
       <r>   55.4315    0.0000 </r>
       <r>   56.1658    0.0000 </r>
       <r>   56.7837    0.0000 </r>
       <r>   56.8173    0.0000 </r>
       <r>   56.8504    0.0000 </r>
       <r>   58.5779    0.0000 </r>
       <r>   58.9452    0.0000 </r>
      </set>
      <set comment="kpoint 3">
       <r>  -29.6844    1.0000 </r>
       <r>  -29.6821    1.0000 </r>
       <r>  -29.5874    1.0000 </r>
       <r>  -29.5850    1.0000 </r>
       <r>  -29.4998    1.0000 </r>
       <r>  -29.4829    1.0000 </r>
       <r>  -14.4114    1.0000 </r>
       <r>  -13.6896    1.0000 </r>
       <r>  -13.0606    1.0000 </r>
       <r>  -12.9419    1.0000 </r>
       <r>   -1.8915    1.0000 </r>
       <r>   -1.6645    1.0000 </r>
       <r>   -0.8442    1.0000 </r>
       <r>   -0.3978    1.0000 </r>
       <r>   -0.3830    1.0000 </r>
       <r>    0.2897    1.0000 </r>
       <r>    0.5310    1.0000 </r>
       <r>    1.3620    1.0000 </r>
       <r>    1.5405    1.0000 </r>
       <r>    2.1550    1.0000 </r>
       <r>    2.5002    1.0000 </r>
       <r>    2.9884    1.0000 </r>
       <r>    5.6513    0.0000 </r>
       <r>    5.8979    0.0000 </r>
       <r>    6.2249    0.0000 </r>
       <r>    6.3018    0.0000 </r>
       <r>    6.4284    0.0000 </r>
       <r>    7.4546    0.0000 </r>
       <r>    8.6292    0.0000 </r>
       <r>    9.7435    0.0000 </r>
       <r>    9.7823    0.0000 </r>
       <r>   10.2977    0.0000 </r>
       <r>   12.3521    0.0000 </r>
       <r>   14.3447    0.0000 </r>
       <r>   15.7654    0.0000 </r>
       <r>   17.6081    0.0000 </r>
       <r>   18.5732    0.0000 </r>
       <r>   19.3438    0.0000 </r>
       <r>   21.2105    0.0000 </r>
       <r>   22.6890    0.0000 </r>
       <r>   22.7952    0.0000 </r>
       <r>   23.8067    0.0000 </r>
       <r>   24.4882    0.0000 </r>
       <r>   25.2446    0.0000 </r>
       <r>   25.2451    0.0000 </r>
       <r>   25.7500    0.0000 </r>
       <r>   25.8743    0.0000 </r>
       <r>   25.8774    0.0000 </r>
       <r>   27.5904    0.0000 </r>
       <r>   27.9471    0.0000 </r>
       <r>   29.2788    0.0000 </r>
       <r>   29.2915    0.0000 </r>
       <r>   30.3070    0.0000 </r>
       <r>   30.7085    0.0000 </r>
       <r>   32.2243    0.0000 </r>
       <r>   32.4358    0.0000 </r>
       <r>   34.9539    0.0000 </r>
       <r>   35.0802    0.0000 </r>
       <r>   36.0391    0.0000 </r>
       <r>   36.8238    0.0000 </r>
       <r>   36.8464    0.0000 </r>
       <r>   37.7132    0.0000 </r>
       <r>   38.1625    0.0000 </r>
       <r>   39.8839    0.0000 </r>
       <r>   40.2870    0.0000 </r>
       <r>   40.6361    0.0000 </r>
       <r>   40.7680    0.0000 </r>
       <r>   41.4904    0.0000 </r>
       <r>   41.8352    0.0000 </r>
       <r>   42.0678    0.0000 </r>
       <r>   43.2713    0.0000 </r>
       <r>   44.0451    0.0000 </r>
       <r>   44.1473    0.0000 </r>
       <r>   44.1719    0.0000 </r>
       <r>   45.2330    0.0000 </r>
       <r>   45.7023    0.0000 </r>
       <r>   45.7785    0.0000 </r>
       <r>   46.5088    0.0000 </r>
       <r>   48.2809    0.0000 </r>
       <r>   48.4883    0.0000 </r>
       <r>   49.8378    0.0000 </r>
       <r>   50.0012    0.0000 </r>
       <r>   50.5855    0.0000 </r>
       <r>   52.4412    0.0000 </r>
       <r>   52.5484    0.0000 </r>
       <r>   53.2017    0.0000 </r>
       <r>   54.5281    0.0000 </r>
       <r>   54.7325    0.0000 </r>
       <r>   54.8067    0.0000 </r>
       <r>   55.1189    0.0000 </r>
       <r>   55.7007    0.0000 </r>
       <r>   56.6242    0.0000 </r>
       <r>   57.4011    0.0000 </r>
       <r>   57.9852    0.0000 </r>
       <r>   58.5924    0.0000 </r>
       <r>   59.1304    0.0000 </r>
      </set>
      <set comment="kpoint 4">
       <r>  -29.6630    1.0000 </r>
       <r>  -29.6630    1.0000 </r>
       <r>  -29.6076    1.0000 </r>
       <r>  -29.6076    1.0000 </r>
       <r>  -29.4913    1.0000 </r>
       <r>  -29.4913    1.0000 </r>
       <r>  -14.0248    1.0000 </r>
       <r>  -14.0248    1.0000 </r>
       <r>  -13.0476    1.0000 </r>
       <r>  -13.0476    1.0000 </r>
       <r>   -1.6011    1.0000 </r>
       <r>   -1.6011    1.0000 </r>
       <r>   -0.3750    1.0000 </r>
       <r>   -0.3750    1.0000 </r>
       <r>    0.0877    1.0000 </r>
       <r>    0.0877    1.0000 </r>
       <r>    0.3071    1.0000 </r>
       <r>    0.3071    1.0000 </r>
       <r>    1.7763    1.0000 </r>
       <r>    1.7763    1.0000 </r>
       <r>    2.6429    1.0000 </r>
       <r>    2.6429    1.0000 </r>
       <r>    5.8752    0.0000 </r>
       <r>    5.8752    0.0000 </r>
       <r>    6.3971    0.0000 </r>
       <r>    6.3971    0.0000 </r>
       <r>    6.9536    0.0000 </r>
       <r>    6.9536    0.0000 </r>
       <r>    9.4900    0.0000 </r>
       <r>    9.4900    0.0000 </r>
       <r>    9.6670    0.0000 </r>
       <r>    9.6670    0.0000 </r>
       <r>   13.4240    0.0000 </r>
       <r>   13.4240    0.0000 </r>
       <r>   16.7169    0.0000 </r>
       <r>   16.7169    0.0000 </r>
       <r>   19.0308    0.0000 </r>
       <r>   19.0308    0.0000 </r>
       <r>   21.6465    0.0000 </r>
       <r>   21.6465    0.0000 </r>
       <r>   23.2406    0.0000 </r>
       <r>   23.2406    0.0000 </r>
       <r>   24.8129    0.0000 </r>
       <r>   24.8129    0.0000 </r>
       <r>   25.2450    0.0000 </r>
       <r>   25.2450    0.0000 </r>
       <r>   26.8402    0.0000 </r>
       <r>   26.8402    0.0000 </r>
       <r>   27.1188    0.0000 </r>
       <r>   27.1188    0.0000 </r>
       <r>   29.1611    0.0000 </r>
       <r>   29.1611    0.0000 </r>
       <r>   31.1360    0.0000 </r>
       <r>   31.1360    0.0000 </r>
       <r>   31.3038    0.0000 </r>
       <r>   31.3038    0.0000 </r>
       <r>   36.0497    0.0000 </r>
       <r>   36.0497    0.0000 </r>
       <r>   36.4647    0.0000 </r>
       <r>   36.4647    0.0000 </r>
       <r>   37.1121    0.0000 </r>
       <r>   37.1121    0.0000 </r>
       <r>   39.6171    0.0000 </r>
       <r>   39.6171    0.0000 </r>
       <r>   41.1443    0.0000 </r>
       <r>   41.1443    0.0000 </r>
       <r>   41.3921    0.0000 </r>
       <r>   41.3921    0.0000 </r>
       <r>   42.5363    0.0000 </r>
       <r>   42.5363    0.0000 </r>
       <r>   42.5479    0.0000 </r>
       <r>   42.5479    0.0000 </r>
       <r>   44.2297    0.0000 </r>
       <r>   44.2297    0.0000 </r>
       <r>   44.6023    0.0000 </r>
       <r>   44.6023    0.0000 </r>
       <r>   45.7265    0.0000 </r>
       <r>   45.7265    0.0000 </r>
       <r>   47.5967    0.0000 </r>
       <r>   47.5967    0.0000 </r>
       <r>   50.4120    0.0000 </r>
       <r>   50.4120    0.0000 </r>
       <r>   50.6620    0.0000 </r>
       <r>   50.6620    0.0000 </r>
       <r>   54.0184    0.0000 </r>
       <r>   54.0185    0.0000 </r>
       <r>   54.5444    0.0000 </r>
       <r>   54.5444    0.0000 </r>
       <r>   55.8288    0.0000 </r>
       <r>   55.8289    0.0000 </r>
       <r>   56.1563    0.0000 </r>
       <r>   56.1564    0.0000 </r>
       <r>   56.2294    0.0000 </r>
       <r>   56.2297    0.0000 </r>
       <r>   59.5638    0.0000 </r>
       <r>   59.5697    0.0000 </r>
      </set>
      <set comment="kpoint 5">
       <r>  -29.7206    1.0000 </r>
       <r>  -29.6807    1.0000 </r>
       <r>  -29.5881    1.0000 </r>
       <r>  -29.5467    1.0000 </r>
       <r>  -29.5041    1.0000 </r>
       <r>  -29.4786    1.0000 </r>
       <r>  -14.6067    1.0000 </r>
       <r>  -13.5986    1.0000 </r>
       <r>  -13.0003    1.0000 </r>
       <r>  -12.8401    1.0000 </r>
       <r>   -2.2767    1.0000 </r>
       <r>   -1.6982    1.0000 </r>
       <r>   -1.2797    1.0000 </r>
       <r>   -0.4545    1.0000 </r>
       <r>   -0.3801    1.0000 </r>
       <r>    0.4019    1.0000 </r>
       <r>    0.8422    1.0000 </r>
       <r>    1.4811    1.0000 </r>
       <r>    2.1008    1.0000 </r>
       <r>    2.4532    1.0000 </r>
       <r>    2.5895    1.0000 </r>
       <r>    3.2229    1.0000 </r>
       <r>    5.2687    0.0000 </r>
       <r>    5.8416    0.0000 </r>
       <r>    5.8685    0.0000 </r>
       <r>    6.1693    0.0000 </r>
       <r>    6.2654    0.0000 </r>
       <r>    7.7372    0.0000 </r>
       <r>    8.1495    0.0000 </r>
       <r>    9.7630    0.0000 </r>
       <r>   10.0228    0.0000 </r>
       <r>   10.6586    0.0000 </r>
       <r>   11.8164    0.0000 </r>
       <r>   14.9771    0.0000 </r>
       <r>   15.0964    0.0000 </r>
       <r>   17.7855    0.0000 </r>
       <r>   18.5019    0.0000 </r>
       <r>   19.3509    0.0000 </r>
       <r>   21.2751    0.0000 </r>
       <r>   22.5694    0.0000 </r>
       <r>   23.3371    0.0000 </r>
       <r>   23.5668    0.0000 </r>
       <r>   25.2445    0.0000 </r>
       <r>   25.2451    0.0000 </r>
       <r>   25.3862    0.0000 </r>
       <r>   25.7562    0.0000 </r>
       <r>   26.1771    0.0000 </r>
       <r>   26.1826    0.0000 </r>
       <r>   26.3030    0.0000 </r>
       <r>   28.2416    0.0000 </r>
       <r>   28.8003    0.0000 </r>
       <r>   29.7325    0.0000 </r>
       <r>   30.6252    0.0000 </r>
       <r>   30.9155    0.0000 </r>
       <r>   32.6470    0.0000 </r>
       <r>   33.0410    0.0000 </r>
       <r>   33.5813    0.0000 </r>
       <r>   34.9027    0.0000 </r>
       <r>   35.3535    0.0000 </r>
       <r>   36.5130    0.0000 </r>
       <r>   36.6346    0.0000 </r>
       <r>   37.2212    0.0000 </r>
       <r>   38.2554    0.0000 </r>
       <r>   38.7938    0.0000 </r>
       <r>   39.2084    0.0000 </r>
       <r>   40.6668    0.0000 </r>
       <r>   41.0200    0.0000 </r>
       <r>   41.5754    0.0000 </r>
       <r>   42.1317    0.0000 </r>
       <r>   42.5652    0.0000 </r>
       <r>   43.3343    0.0000 </r>
       <r>   43.6084    0.0000 </r>
       <r>   44.3347    0.0000 </r>
       <r>   44.9184    0.0000 </r>
       <r>   45.0814    0.0000 </r>
       <r>   46.3887    0.0000 </r>
       <r>   47.3221    0.0000 </r>
       <r>   47.3834    0.0000 </r>
       <r>   48.2833    0.0000 </r>
       <r>   48.3879    0.0000 </r>
       <r>   48.9606    0.0000 </r>
       <r>   51.2801    0.0000 </r>
       <r>   51.4989    0.0000 </r>
       <r>   51.9826    0.0000 </r>
       <r>   52.6861    0.0000 </r>
       <r>   53.2959    0.0000 </r>
       <r>   53.5642    0.0000 </r>
       <r>   53.9350    0.0000 </r>
       <r>   54.6082    0.0000 </r>
       <r>   55.4857    0.0000 </r>
       <r>   55.5121    0.0000 </r>
       <r>   56.1733    0.0000 </r>
       <r>   57.1250    0.0000 </r>
       <r>   57.3778    0.0000 </r>
       <r>   58.3880    0.0000 </r>
       <r>   58.9083    0.0000 </r>
      </set>
      <set comment="kpoint 6">
       <r>  -29.7134    1.0000 </r>
       <r>  -29.6634    1.0000 </r>
       <r>  -29.6072    1.0000 </r>
       <r>  -29.5557    1.0000 </r>
       <r>  -29.4987    1.0000 </r>
       <r>  -29.4840    1.0000 </r>
       <r>  -14.3705    1.0000 </r>
       <r>  -13.7417    1.0000 </r>
       <r>  -13.0777    1.0000 </r>
       <r>  -12.9113    1.0000 </r>
       <r>   -2.1060    1.0000 </r>
       <r>   -1.5443    1.0000 </r>
       <r>   -0.7574    1.0000 </r>
       <r>   -0.4494    1.0000 </r>
       <r>   -0.3744    1.0000 </r>
       <r>    0.2981    1.0000 </r>
       <r>    0.6978    1.0000 </r>
       <r>    1.4982    1.0000 </r>
       <r>    1.6041    1.0000 </r>
       <r>    2.1885    1.0000 </r>
       <r>    2.2846    1.0000 </r>
       <r>    2.8960    1.0000 </r>
       <r>    5.4464    0.0000 </r>
       <r>    5.9122    0.0000 </r>
       <r>    6.0020    0.0000 </r>
       <r>    6.4021    0.0000 </r>
       <r>    6.5790    0.0000 </r>
       <r>    7.4473    0.0000 </r>
       <r>    8.6619    0.0000 </r>
       <r>    9.6651    0.0000 </r>
       <r>    9.9385    0.0000 </r>
       <r>   10.1322    0.0000 </r>
       <r>   12.6667    0.0000 </r>
       <r>   14.5385    0.0000 </r>
       <r>   15.7120    0.0000 </r>
       <r>   17.6154    0.0000 </r>
       <r>   18.2787    0.0000 </r>
       <r>   19.0179    0.0000 </r>
       <r>   21.2516    0.0000 </r>
       <r>   22.3136    0.0000 </r>
       <r>   23.6729    0.0000 </r>
       <r>   24.0287    0.0000 </r>
       <r>   24.6895    0.0000 </r>
       <r>   25.2446    0.0000 </r>
       <r>   25.2450    0.0000 </r>
       <r>   25.6549    0.0000 </r>
       <r>   25.7864    0.0000 </r>
       <r>   25.9788    0.0000 </r>
       <r>   26.3733    0.0000 </r>
       <r>   27.8180    0.0000 </r>
       <r>   28.3138    0.0000 </r>
       <r>   30.0859    0.0000 </r>
       <r>   30.3351    0.0000 </r>
       <r>   31.7320    0.0000 </r>
       <r>   32.1202    0.0000 </r>
       <r>   33.0680    0.0000 </r>
       <r>   34.7478    0.0000 </r>
       <r>   35.0494    0.0000 </r>
       <r>   35.4627    0.0000 </r>
       <r>   36.2142    0.0000 </r>
       <r>   37.2271    0.0000 </r>
       <r>   38.0975    0.0000 </r>
       <r>   38.8392    0.0000 </r>
       <r>   39.2163    0.0000 </r>
       <r>   40.0885    0.0000 </r>
       <r>   40.3351    0.0000 </r>
       <r>   41.0376    0.0000 </r>
       <r>   41.4927    0.0000 </r>
       <r>   41.9450    0.0000 </r>
       <r>   43.0425    0.0000 </r>
       <r>   43.2391    0.0000 </r>
       <r>   43.6469    0.0000 </r>
       <r>   44.4333    0.0000 </r>
       <r>   44.6926    0.0000 </r>
       <r>   44.9464    0.0000 </r>
       <r>   46.0398    0.0000 </r>
       <r>   46.1240    0.0000 </r>
       <r>   47.0911    0.0000 </r>
       <r>   47.9082    0.0000 </r>
       <r>   48.4136    0.0000 </r>
       <r>   49.1074    0.0000 </r>
       <r>   50.2781    0.0000 </r>
       <r>   50.8612    0.0000 </r>
       <r>   51.9564    0.0000 </r>
       <r>   52.2061    0.0000 </r>
       <r>   52.6758    0.0000 </r>
       <r>   53.0888    0.0000 </r>
       <r>   53.7705    0.0000 </r>
       <r>   54.0995    0.0000 </r>
       <r>   55.4067    0.0000 </r>
       <r>   56.0178    0.0000 </r>
       <r>   57.1594    0.0000 </r>
       <r>   57.8043    0.0000 </r>
       <r>   58.1234    0.0000 </r>
       <r>   58.3569    0.0000 </r>
       <r>   59.5034    0.0000 </r>
      </set>
      <set comment="kpoint 7">
       <r>  -29.6885    1.0000 </r>
       <r>  -29.6885    1.0000 </r>
       <r>  -29.5822    1.0000 </r>
       <r>  -29.5822    1.0000 </r>
       <r>  -29.4913    1.0000 </r>
       <r>  -29.4913    1.0000 </r>
       <r>  -14.0446    1.0000 </r>
       <r>  -14.0446    1.0000 </r>
       <r>  -13.0196    1.0000 </r>
       <r>  -13.0196    1.0000 </r>
       <r>   -1.7811    1.0000 </r>
       <r>   -1.7811    1.0000 </r>
       <r>   -0.4106    1.0000 </r>
       <r>   -0.4106    1.0000 </r>
       <r>   -0.0215    1.0000 </r>
       <r>   -0.0215    1.0000 </r>
       <r>    0.8238    1.0000 </r>
       <r>    0.8238    1.0000 </r>
       <r>    1.8613    1.0000 </r>
       <r>    1.8613    1.0000 </r>
       <r>    2.4540    1.0000 </r>
       <r>    2.4540    1.0000 </r>
       <r>    5.7479    0.0000 </r>
       <r>    5.7479    0.0000 </r>
       <r>    6.2659    0.0000 </r>
       <r>    6.2659    0.0000 </r>
       <r>    7.0341    0.0000 </r>
       <r>    7.0341    0.0000 </r>
       <r>    9.4015    0.0000 </r>
       <r>    9.4015    0.0000 </r>
       <r>    9.7610    0.0000 </r>
       <r>    9.7610    0.0000 </r>
       <r>   13.6682    0.0000 </r>
       <r>   13.6682    0.0000 </r>
       <r>   16.6841    0.0000 </r>
       <r>   16.6841    0.0000 </r>
       <r>   18.6688    0.0000 </r>
       <r>   18.6688    0.0000 </r>
       <r>   21.6502    0.0000 </r>
       <r>   21.6502    0.0000 </r>
       <r>   23.7070    0.0000 </r>
       <r>   23.7070    0.0000 </r>
       <r>   24.9741    0.0000 </r>
       <r>   24.9741    0.0000 </r>
       <r>   25.2449    0.0000 </r>
       <r>   25.2449    0.0000 </r>
       <r>   26.3604    0.0000 </r>
       <r>   26.3604    0.0000 </r>
       <r>   26.8097    0.0000 </r>
       <r>   26.8097    0.0000 </r>
       <r>   29.1626    0.0000 </r>
       <r>   29.1626    0.0000 </r>
       <r>   30.8873    0.0000 </r>
       <r>   30.8873    0.0000 </r>
       <r>   32.3392    0.0000 </r>
       <r>   32.3392    0.0000 </r>
       <r>   35.7411    0.0000 </r>
       <r>   35.7411    0.0000 </r>
       <r>   36.1279    0.0000 </r>
       <r>   36.1279    0.0000 </r>
       <r>   36.9720    0.0000 </r>
       <r>   36.9720    0.0000 </r>
       <r>   39.9126    0.0000 </r>
       <r>   39.9126    0.0000 </r>
       <r>   40.6897    0.0000 </r>
       <r>   40.6897    0.0000 </r>
       <r>   41.4799    0.0000 </r>
       <r>   41.4799    0.0000 </r>
       <r>   42.3592    0.0000 </r>
       <r>   42.3592    0.0000 </r>
       <r>   43.7840    0.0000 </r>
       <r>   43.7840    0.0000 </r>
       <r>   44.4301    0.0000 </r>
       <r>   44.4301    0.0000 </r>
       <r>   44.8331    0.0000 </r>
       <r>   44.8331    0.0000 </r>
       <r>   45.6329    0.0000 </r>
       <r>   45.6330    0.0000 </r>
       <r>   47.5924    0.0000 </r>
       <r>   47.5924    0.0000 </r>
       <r>   50.2527    0.0000 </r>
       <r>   50.2527    0.0000 </r>
       <r>   51.1664    0.0000 </r>
       <r>   51.1664    0.0000 </r>
       <r>   52.2756    0.0000 </r>
       <r>   52.2756    0.0000 </r>
       <r>   53.0867    0.0000 </r>
       <r>   53.0867    0.0000 </r>
       <r>   55.5198    0.0000 </r>
       <r>   55.5199    0.0000 </r>
       <r>   56.8314    0.0000 </r>
       <r>   56.8318    0.0000 </r>
       <r>   58.1559    0.0000 </r>
       <r>   58.1594    0.0000 </r>
       <r>   59.3050    0.0000 </r>
       <r>   59.7676    0.0000 </r>
      </set>
      <set comment="kpoint 8">
       <r>  -29.7271    1.0000 </r>
       <r>  -29.6912    1.0000 </r>
       <r>  -29.5802    1.0000 </r>
       <r>  -29.5427    1.0000 </r>
       <r>  -29.4955    1.0000 </r>
       <r>  -29.4870    1.0000 </r>
       <r>  -14.2540    1.0000 </r>
       <r>  -13.8902    1.0000 </r>
       <r>  -13.0451    1.0000 </r>
       <r>  -12.9078    1.0000 </r>
       <r>   -2.2252    1.0000 </r>
       <r>   -1.7598    1.0000 </r>
       <r>   -0.4897    1.0000 </r>
       <r>   -0.4204    1.0000 </r>
       <r>   -0.3794    1.0000 </r>
       <r>    0.5037    1.0000 </r>
       <r>    1.0038    1.0000 </r>
       <r>    1.5644    1.0000 </r>
       <r>    1.7932    1.0000 </r>
       <r>    1.8591    1.0000 </r>
       <r>    2.1861    1.0000 </r>
       <r>    2.7031    1.0000 </r>
       <r>    5.2499    0.0000 </r>
       <r>    5.7497    0.0000 </r>
       <r>    5.8796    0.0000 </r>
       <r>    6.2701    0.0000 </r>
       <r>    6.8880    0.0000 </r>
       <r>    7.3682    0.0000 </r>
       <r>    8.8661    0.0000 </r>
       <r>    9.7248    0.0000 </r>
       <r>    9.7590    0.0000 </r>
       <r>   10.0173    0.0000 </r>
       <r>   13.3935    0.0000 </r>
       <r>   14.7555    0.0000 </r>
       <r>   15.7617    0.0000 </r>
       <r>   17.3587    0.0000 </r>
       <r>   17.9554    0.0000 </r>
       <r>   18.5186    0.0000 </r>
       <r>   21.3399    0.0000 </r>
       <r>   22.0719    0.0000 </r>
       <r>   24.4153    0.0000 </r>
       <r>   24.6274    0.0000 </r>
       <r>   24.8688    0.0000 </r>
       <r>   25.1030    0.0000 </r>
       <r>   25.1902    0.0000 </r>
       <r>   25.2451    0.0000 </r>
       <r>   25.2464    0.0000 </r>
       <r>   25.7605    0.0000 </r>
       <r>   26.2682    0.0000 </r>
       <r>   27.3513    0.0000 </r>
       <r>   28.4368    0.0000 </r>
       <r>   29.9274    0.0000 </r>
       <r>   30.7951    0.0000 </r>
       <r>   31.2604    0.0000 </r>
       <r>   32.8928    0.0000 </r>
       <r>   33.7299    0.0000 </r>
       <r>   34.5542    0.0000 </r>
       <r>   35.0913    0.0000 </r>
       <r>   35.4788    0.0000 </r>
       <r>   35.9963    0.0000 </r>
       <r>   36.4974    0.0000 </r>
       <r>   37.3995    0.0000 </r>
       <r>   39.5677    0.0000 </r>
       <r>   40.3493    0.0000 </r>
       <r>   40.4068    0.0000 </r>
       <r>   40.6708    0.0000 </r>
       <r>   41.3589    0.0000 </r>
       <r>   41.4823    0.0000 </r>
       <r>   41.8258    0.0000 </r>
       <r>   43.1770    0.0000 </r>
       <r>   44.0273    0.0000 </r>
       <r>   44.1020    0.0000 </r>
       <r>   44.5028    0.0000 </r>
       <r>   44.8026    0.0000 </r>
       <r>   45.4649    0.0000 </r>
       <r>   45.6926    0.0000 </r>
       <r>   46.6988    0.0000 </r>
       <r>   47.2379    0.0000 </r>
       <r>   47.3682    0.0000 </r>
       <r>   47.4163    0.0000 </r>
       <r>   48.2251    0.0000 </r>
       <r>   50.4652    0.0000 </r>
       <r>   50.4877    0.0000 </r>
       <r>   50.7446    0.0000 </r>
       <r>   51.6939    0.0000 </r>
       <r>   51.7734    0.0000 </r>
       <r>   52.7953    0.0000 </r>
       <r>   53.8698    0.0000 </r>
       <r>   54.2235    0.0000 </r>
       <r>   55.4511    0.0000 </r>
       <r>   55.5764    0.0000 </r>
       <r>   57.0564    0.0000 </r>
       <r>   57.9592    0.0000 </r>
       <r>   57.9895    0.0000 </r>
       <r>   58.6944    0.0000 </r>
       <r>   59.2297    0.0000 </r>
      </set>
      <set comment="kpoint 9">
       <r>  -29.7187    1.0000 </r>
       <r>  -29.7187    1.0000 </r>
       <r>  -29.5522    1.0000 </r>
       <r>  -29.5522    1.0000 </r>
       <r>  -29.4913    1.0000 </r>
       <r>  -29.4913    1.0000 </r>
       <r>  -14.0813    1.0000 </r>
       <r>  -14.0813    1.0000 </r>
       <r>  -12.9660    1.0000 </r>
       <r>  -12.9660    1.0000 </r>
       <r>   -2.0872    1.0000 </r>
       <r>   -2.0872    1.0000 </r>
       <r>   -0.4765    1.0000 </r>
       <r>   -0.4765    1.0000 </r>
       <r>    0.2142    1.0000 </r>
       <r>    0.2142    1.0000 </r>
       <r>    1.2842    1.0000 </r>
       <r>    1.2842    1.0000 </r>
       <r>    2.0336    1.0000 </r>
       <r>    2.0336    1.0000 </r>
       <r>    2.2104    1.0000 </r>
       <r>    2.2104    1.0000 </r>
       <r>    5.4318    0.0000 </r>
       <r>    5.4318    0.0000 </r>
       <r>    6.0112    0.0000 </r>
       <r>    6.0112    0.0000 </r>
       <r>    7.1737    0.0000 </r>
       <r>    7.1737    0.0000 </r>
       <r>    9.2564    0.0000 </r>
       <r>    9.2564    0.0000 </r>
       <r>    9.9341    0.0000 </r>
       <r>    9.9341    0.0000 </r>
       <r>   14.2064    0.0000 </r>
       <r>   14.2064    0.0000 </r>
       <r>   16.5158    0.0000 </r>
       <r>   16.5158    0.0000 </r>
       <r>   18.1623    0.0000 </r>
       <r>   18.1623    0.0000 </r>
       <r>   21.6716    0.0000 </r>
       <r>   21.6716    0.0000 </r>
       <r>   24.3471    0.0000 </r>
       <r>   24.3471    0.0000 </r>
       <r>   25.1858    0.0000 </r>
       <r>   25.1858    0.0000 </r>
       <r>   25.2468    0.0000 </r>
       <r>   25.2468    0.0000 </r>
       <r>   25.3522    0.0000 </r>
       <r>   25.3522    0.0000 </r>
       <r>   26.7300    0.0000 </r>
       <r>   26.7300    0.0000 </r>
       <r>   29.8643    0.0000 </r>
       <r>   29.8643    0.0000 </r>
       <r>   30.3625    0.0000 </r>
       <r>   30.3625    0.0000 </r>
       <r>   33.1895    0.0000 </r>
       <r>   33.1895    0.0000 </r>
       <r>   35.4705    0.0000 </r>
       <r>   35.4705    0.0000 </r>
       <r>   35.5504    0.0000 </r>
       <r>   35.5504    0.0000 </r>
       <r>   36.5224    0.0000 </r>
       <r>   36.5224    0.0000 </r>
       <r>   40.5951    0.0000 </r>
       <r>   40.5951    0.0000 </r>
       <r>   40.7311    0.0000 </r>
       <r>   40.7311    0.0000 </r>
       <r>   41.1873    0.0000 </r>
       <r>   41.1873    0.0000 </r>
       <r>   43.3370    0.0000 </r>
       <r>   43.3370    0.0000 </r>
       <r>   44.3314    0.0000 </r>
       <r>   44.3314    0.0000 </r>
       <r>   44.8853    0.0000 </r>
       <r>   44.8853    0.0000 </r>
       <r>   45.0422    0.0000 </r>
       <r>   45.0422    0.0000 </r>
       <r>   45.8887    0.0000 </r>
       <r>   45.8887    0.0000 </r>
       <r>   47.6259    0.0000 </r>
       <r>   47.6259    0.0000 </r>
       <r>   48.9664    0.0000 </r>
       <r>   48.9664    0.0000 </r>
       <r>   49.8594    0.0000 </r>
       <r>   49.8594    0.0000 </r>
       <r>   52.6788    0.0000 </r>
       <r>   52.6788    0.0000 </r>
       <r>   53.4950    0.0000 </r>
       <r>   53.4950    0.0000 </r>
       <r>   54.1478    0.0000 </r>
       <r>   54.1478    0.0000 </r>
       <r>   57.2191    0.0000 </r>
       <r>   57.2195    0.0000 </r>
       <r>   57.2670    0.0000 </r>
       <r>   57.2672    0.0000 </r>
       <r>   60.2049    0.0000 </r>
       <r>   60.2305    0.0000 </r>
      </set>
      <set comment="kpoint 10">
       <r>  -29.7303    1.0000 </r>
       <r>  -29.7303    1.0000 </r>
       <r>  -29.5407    1.0000 </r>
       <r>  -29.5407    1.0000 </r>
       <r>  -29.4912    1.0000 </r>
       <r>  -29.4912    1.0000 </r>
       <r>  -14.0985    1.0000 </r>
       <r>  -14.0985    1.0000 </r>
       <r>  -12.9401    1.0000 </r>
       <r>  -12.9401    1.0000 </r>
       <r>   -2.2196    1.0000 </r>
       <r>   -2.2196    1.0000 </r>
       <r>   -0.5072    1.0000 </r>
       <r>   -0.5072    1.0000 </r>
       <r>    0.4915    1.0000 </r>
       <r>    0.4915    1.0000 </r>
       <r>    1.1489    1.0000 </r>
       <r>    1.1489    1.0000 </r>
       <r>    2.1219    1.0000 </r>
       <r>    2.1219    1.0000 </r>
       <r>    2.3222    1.0000 </r>
       <r>    2.3222    1.0000 </r>
       <r>    5.2283    0.0000 </r>
       <r>    5.2283    0.0000 </r>
       <r>    5.8855    0.0000 </r>
       <r>    5.8855    0.0000 </r>
       <r>    7.2330    0.0000 </r>
       <r>    7.2330    0.0000 </r>
       <r>    9.1993    0.0000 </r>
       <r>    9.1993    0.0000 </r>
       <r>   10.0147    0.0000 </r>
       <r>   10.0147    0.0000 </r>
       <r>   14.5288    0.0000 </r>
       <r>   14.5288    0.0000 </r>
       <r>   16.3476    0.0000 </r>
       <r>   16.3476    0.0000 </r>
       <r>   17.9853    0.0000 </r>
       <r>   17.9853    0.0000 </r>
       <r>   21.7256    0.0000 </r>
       <r>   21.7256    0.0000 </r>
       <r>   24.2398    0.0000 </r>
       <r>   24.2398    0.0000 </r>
       <r>   24.9792    0.0000 </r>
       <r>   24.9792    0.0000 </r>
       <r>   25.2453    0.0000 </r>
       <r>   25.2453    0.0000 </r>
       <r>   25.5874    0.0000 </r>
       <r>   25.5874    0.0000 </r>
       <r>   26.6690    0.0000 </r>
       <r>   26.6690    0.0000 </r>
       <r>   30.0778    0.0000 </r>
       <r>   30.0778    0.0000 </r>
       <r>   30.8046    0.0000 </r>
       <r>   30.8046    0.0000 </r>
       <r>   32.4928    0.0000 </r>
       <r>   32.4928    0.0000 </r>
       <r>   35.1689    0.0000 </r>
       <r>   35.1689    0.0000 </r>
       <r>   35.5763    0.0000 </r>
       <r>   35.5763    0.0000 </r>
       <r>   36.8777    0.0000 </r>
       <r>   36.8777    0.0000 </r>
       <r>   40.8732    0.0000 </r>
       <r>   40.8732    0.0000 </r>
       <r>   40.8741    0.0000 </r>
       <r>   40.8741    0.0000 </r>
       <r>   40.8980    0.0000 </r>
       <r>   40.8980    0.0000 </r>
       <r>   44.0204    0.0000 </r>
       <r>   44.0204    0.0000 </r>
       <r>   44.2867    0.0000 </r>
       <r>   44.2867    0.0000 </r>
       <r>   44.7766    0.0000 </r>
       <r>   44.7766    0.0000 </r>
       <r>   45.2700    0.0000 </r>
       <r>   45.2700    0.0000 </r>
       <r>   47.2248    0.0000 </r>
       <r>   47.2248    0.0000 </r>
       <r>   47.3211    0.0000 </r>
       <r>   47.3212    0.0000 </r>
       <r>   47.7008    0.0000 </r>
       <r>   47.7008    0.0000 </r>
       <r>   48.8685    0.0000 </r>
       <r>   48.8685    0.0000 </r>
       <r>   52.4576    0.0000 </r>
       <r>   52.4576    0.0000 </r>
       <r>   53.9180    0.0000 </r>
       <r>   53.9181    0.0000 </r>
       <r>   54.6376    0.0000 </r>
       <r>   54.6376    0.0000 </r>
       <r>   58.0052    0.0000 </r>
       <r>   58.0057    0.0000 </r>
       <r>   58.1047    0.0000 </r>
       <r>   58.1168    0.0000 </r>
       <r>   58.3700    0.0000 </r>
       <r>   58.3713    0.0000 </r>
      </set>
      <set comment="kpoint 11">
       <r>  -29.7031    1.0000 </r>
       <r>  -29.7031    1.0000 </r>
       <r>  -29.5648    1.0000 </r>
       <r>  -29.5459    1.0000 </r>
       <r>  -29.5459    1.0000 </r>
       <r>  -29.5338    1.0000 </r>
       <r>  -14.6571    1.0000 </r>
       <r>  -13.4917    1.0000 </r>
       <r>  -12.8690    1.0000 </r>
       <r>  -12.8690    1.0000 </r>
       <r>   -2.2789    1.0000 </r>
       <r>   -1.8736    1.0000 </r>
       <r>   -1.4804    1.0000 </r>
       <r>   -0.5986    1.0000 </r>
       <r>   -0.5986    1.0000 </r>
       <r>    1.0519    1.0000 </r>
       <r>    1.0613    1.0000 </r>
       <r>    1.0613    1.0000 </r>
       <r>    2.1964    1.0000 </r>
       <r>    2.7003    1.0000 </r>
       <r>    2.7003    1.0000 </r>
       <r>    3.3341    1.0000 </r>
       <r>    5.5167    0.0000 </r>
       <r>    5.6024    0.0000 </r>
       <r>    5.6823    0.0000 </r>
       <r>    6.0262    0.0000 </r>
       <r>    6.0262    0.0000 </r>
       <r>    7.8781    0.0000 </r>
       <r>    7.9739    0.0000 </r>
       <r>    9.8343    0.0000 </r>
       <r>    9.8343    0.0000 </r>
       <r>   10.8260    0.0000 </r>
       <r>   11.5183    0.0000 </r>
       <r>   15.4386    0.0000 </r>
       <r>   15.4386    0.0000 </r>
       <r>   17.7329    0.0000 </r>
       <r>   18.7887    0.0000 </r>
       <r>   19.8541    0.0000 </r>
       <r>   21.3825    0.0000 </r>
       <r>   22.0623    0.0000 </r>
       <r>   22.5562    0.0000 </r>
       <r>   22.5562    0.0000 </r>
       <r>   24.2494    0.0000 </r>
       <r>   25.2451    0.0000 </r>
       <r>   25.2451    0.0000 </r>
       <r>   26.5161    0.0000 </r>
       <r>   27.4415    0.0000 </r>
       <r>   27.4415    0.0000 </r>
       <r>   27.9642    0.0000 </r>
       <r>   27.9642    0.0000 </r>
       <r>   29.0295    0.0000 </r>
       <r>   29.9586    0.0000 </r>
       <r>   30.1504    0.0000 </r>
       <r>   30.5751    0.0000 </r>
       <r>   31.1220    0.0000 </r>
       <r>   31.1220    0.0000 </r>
       <r>   34.7482    0.0000 </r>
       <r>   34.7482    0.0000 </r>
       <r>   34.8999    0.0000 </r>
       <r>   35.9558    0.0000 </r>
       <r>   36.6089    0.0000 </r>
       <r>   37.7329    0.0000 </r>
       <r>   38.4165    0.0000 </r>
       <r>   38.4165    0.0000 </r>
       <r>   39.1111    0.0000 </r>
       <r>   40.8664    0.0000 </r>
       <r>   40.8664    0.0000 </r>
       <r>   41.6354    0.0000 </r>
       <r>   43.4020    0.0000 </r>
       <r>   43.4020    0.0000 </r>
       <r>   43.6114    0.0000 </r>
       <r>   43.6537    0.0000 </r>
       <r>   43.7149    0.0000 </r>
       <r>   43.8913    0.0000 </r>
       <r>   46.0779    0.0000 </r>
       <r>   46.0779    0.0000 </r>
       <r>   47.4499    0.0000 </r>
       <r>   47.4499    0.0000 </r>
       <r>   47.9376    0.0000 </r>
       <r>   48.4828    0.0000 </r>
       <r>   49.4782    0.0000 </r>
       <r>   49.8373    0.0000 </r>
       <r>   51.3671    0.0000 </r>
       <r>   52.1356    0.0000 </r>
       <r>   52.1356    0.0000 </r>
       <r>   54.1897    0.0000 </r>
       <r>   55.0793    0.0000 </r>
       <r>   55.0794    0.0000 </r>
       <r>   55.6276    0.0000 </r>
       <r>   56.3701    0.0000 </r>
       <r>   56.3703    0.0000 </r>
       <r>   57.3432    0.0000 </r>
       <r>   57.6813    0.0000 </r>
       <r>   57.8009    0.0000 </r>
       <r>   57.8043    0.0000 </r>
       <r>   58.6662    0.0000 </r>
      </set>
      <set comment="kpoint 12">
       <r>  -29.6952    1.0000 </r>
       <r>  -29.6937    1.0000 </r>
       <r>  -29.5665    1.0000 </r>
       <r>  -29.5621    1.0000 </r>
       <r>  -29.5509    1.0000 </r>
       <r>  -29.5300    1.0000 </r>
       <r>  -14.5608    1.0000 </r>
       <r>  -13.4929    1.0000 </r>
       <r>  -12.9663    1.0000 </r>
       <r>  -12.9038    1.0000 </r>
       <r>   -2.1099    1.0000 </r>
       <r>   -1.7599    1.0000 </r>
       <r>   -1.3377    1.0000 </r>
       <r>   -0.6082    1.0000 </r>
       <r>   -0.5185    1.0000 </r>
       <r>    0.8365    1.0000 </r>
       <r>    0.8733    1.0000 </r>
       <r>    1.2081    1.0000 </r>
       <r>    1.9021    1.0000 </r>
       <r>    2.4966    1.0000 </r>
       <r>    2.5465    1.0000 </r>
       <r>    3.2180    1.0000 </r>
       <r>    5.6307    0.0000 </r>
       <r>    5.8051    0.0000 </r>
       <r>    5.8145    0.0000 </r>
       <r>    6.0752    0.0000 </r>
       <r>    6.2083    0.0000 </r>
       <r>    7.7426    0.0000 </r>
       <r>    8.1637    0.0000 </r>
       <r>    9.6667    0.0000 </r>
       <r>    9.7586    0.0000 </r>
       <r>   10.7438    0.0000 </r>
       <r>   11.8498    0.0000 </r>
       <r>   15.2782    0.0000 </r>
       <r>   15.6156    0.0000 </r>
       <r>   17.8304    0.0000 </r>
       <r>   18.6942    0.0000 </r>
       <r>   19.6858    0.0000 </r>
       <r>   21.2694    0.0000 </r>
       <r>   22.0329    0.0000 </r>
       <r>   22.2885    0.0000 </r>
       <r>   23.1434    0.0000 </r>
       <r>   24.3961    0.0000 </r>
       <r>   25.2451    0.0000 </r>
       <r>   25.2452    0.0000 </r>
       <r>   25.9725    0.0000 </r>
       <r>   26.5254    0.0000 </r>
       <r>   27.1622    0.0000 </r>
       <r>   27.2967    0.0000 </r>
       <r>   28.0397    0.0000 </r>
       <r>   29.3838    0.0000 </r>
       <r>   29.8793    0.0000 </r>
       <r>   30.7489    0.0000 </r>
       <r>   30.7610    0.0000 </r>
       <r>   31.1793    0.0000 </r>
       <r>   32.9283    0.0000 </r>
       <r>   33.5646    0.0000 </r>
       <r>   34.6718    0.0000 </r>
       <r>   34.7941    0.0000 </r>
       <r>   36.7687    0.0000 </r>
       <r>   37.1035    0.0000 </r>
       <r>   37.6672    0.0000 </r>
       <r>   38.2321    0.0000 </r>
       <r>   38.6941    0.0000 </r>
       <r>   39.9509    0.0000 </r>
       <r>   40.5506    0.0000 </r>
       <r>   40.8495    0.0000 </r>
       <r>   42.0174    0.0000 </r>
       <r>   42.3405    0.0000 </r>
       <r>   42.9577    0.0000 </r>
       <r>   43.0440    0.0000 </r>
       <r>   43.6518    0.0000 </r>
       <r>   44.1059    0.0000 </r>
       <r>   44.3487    0.0000 </r>
       <r>   45.8727    0.0000 </r>
       <r>   46.0069    0.0000 </r>
       <r>   47.0779    0.0000 </r>
       <r>   47.8487    0.0000 </r>
       <r>   48.0261    0.0000 </r>
       <r>   48.8146    0.0000 </r>
       <r>   49.3578    0.0000 </r>
       <r>   50.4440    0.0000 </r>
       <r>   51.5088    0.0000 </r>
       <r>   52.5117    0.0000 </r>
       <r>   52.6661    0.0000 </r>
       <r>   53.2962    0.0000 </r>
       <r>   53.9281    0.0000 </r>
       <r>   54.1132    0.0000 </r>
       <r>   55.1822    0.0000 </r>
       <r>   55.3892    0.0000 </r>
       <r>   56.4248    0.0000 </r>
       <r>   56.4726    0.0000 </r>
       <r>   56.6115    0.0000 </r>
       <r>   57.3415    0.0000 </r>
       <r>   59.0821    0.0000 </r>
       <r>   59.6626    0.0000 </r>
      </set>
      <set comment="kpoint 13">
       <r>  -29.6737    1.0000 </r>
       <r>  -29.6691    1.0000 </r>
       <r>  -29.5922    1.0000 </r>
       <r>  -29.5866    1.0000 </r>
       <r>  -29.5486    1.0000 </r>
       <r>  -29.5322    1.0000 </r>
       <r>  -14.2935    1.0000 </r>
       <r>  -13.5929    1.0000 </r>
       <r>  -13.1172    1.0000 </r>
       <r>  -12.9931    1.0000 </r>
       <r>   -1.7336    1.0000 </r>
       <r>   -1.5070    1.0000 </r>
       <r>   -0.9359    1.0000 </r>
       <r>   -0.6314    1.0000 </r>
       <r>   -0.3075    1.0000 </r>
       <r>    0.4991    1.0000 </r>
       <r>    0.6788    1.0000 </r>
       <r>    1.1323    1.0000 </r>
       <r>    1.2072    1.0000 </r>
       <r>    1.9277    1.0000 </r>
       <r>    2.5037    1.0000 </r>
       <r>    2.9840    1.0000 </r>
       <r>    5.8340    0.0000 </r>
       <r>    6.0282    0.0000 </r>
       <r>    6.1837    0.0000 </r>
       <r>    6.2831    0.0000 </r>
       <r>    6.5472    0.0000 </r>
       <r>    7.3851    0.0000 </r>
       <r>    8.6870    0.0000 </r>
       <r>    9.3818    0.0000 </r>
       <r>    9.6080    0.0000 </r>
       <r>   10.3359    0.0000 </r>
       <r>   12.7151    0.0000 </r>
       <r>   14.6928    0.0000 </r>
       <r>   16.1796    0.0000 </r>
       <r>   17.8513    0.0000 </r>
       <r>   18.6340    0.0000 </r>
       <r>   19.4296    0.0000 </r>
       <r>   21.2216    0.0000 </r>
       <r>   21.8512    0.0000 </r>
       <r>   21.8836    0.0000 </r>
       <r>   23.2779    0.0000 </r>
       <r>   24.7889    0.0000 </r>
       <r>   25.2406    0.0000 </r>
       <r>   25.2450    0.0000 </r>
       <r>   25.2993    0.0000 </r>
       <r>   26.1046    0.0000 </r>
       <r>   26.8386    0.0000 </r>
       <r>   26.8549    0.0000 </r>
       <r>   28.0376    0.0000 </r>
       <r>   29.3435    0.0000 </r>
       <r>   29.9572    0.0000 </r>
       <r>   30.2059    0.0000 </r>
       <r>   31.6073    0.0000 </r>
       <r>   31.9003    0.0000 </r>
       <r>   32.5370    0.0000 </r>
       <r>   33.9576    0.0000 </r>
       <r>   34.9366    0.0000 </r>
       <r>   35.5257    0.0000 </r>
       <r>   36.8201    0.0000 </r>
       <r>   37.6200    0.0000 </r>
       <r>   38.2805    0.0000 </r>
       <r>   38.3821    0.0000 </r>
       <r>   40.0013    0.0000 </r>
       <r>   40.2397    0.0000 </r>
       <r>   40.5718    0.0000 </r>
       <r>   41.4329    0.0000 </r>
       <r>   41.8617    0.0000 </r>
       <r>   42.2829    0.0000 </r>
       <r>   42.3988    0.0000 </r>
       <r>   42.9921    0.0000 </r>
       <r>   43.4169    0.0000 </r>
       <r>   44.1614    0.0000 </r>
       <r>   44.1702    0.0000 </r>
       <r>   45.2551    0.0000 </r>
       <r>   46.1081    0.0000 </r>
       <r>   46.2895    0.0000 </r>
       <r>   46.9395    0.0000 </r>
       <r>   48.2480    0.0000 </r>
       <r>   48.6261    0.0000 </r>
       <r>   49.3787    0.0000 </r>
       <r>   49.7828    0.0000 </r>
[...]
       <r>   56.2002    0.0000 </r>
       <r>   56.2017    0.0000 </r>
       <r>   56.5396    0.0000 </r>
       <r>   56.5443    0.0000 </r>
      </set>
      <set comment="kpoint 140">
       <r>  -29.9707    1.0000 </r>
       <r>  -29.9707    1.0000 </r>
       <r>  -29.5663    1.0000 </r>
       <r>  -29.5663    1.0000 </r>
       <r>  -29.5496    1.0000 </r>
       <r>  -29.5496    1.0000 </r>
       <r>  -13.5548    1.0000 </r>
       <r>  -13.5548    1.0000 </r>
       <r>  -13.0072    1.0000 </r>
       <r>  -13.0072    1.0000 </r>
       <r>   -1.6355    1.0000 </r>
       <r>   -1.6355    1.0000 </r>
       <r>   -0.8754    1.0000 </r>
       <r>   -0.8754    1.0000 </r>
       <r>   -0.1359    1.0000 </r>
       <r>   -0.1359    1.0000 </r>
       <r>    0.6997    1.0000 </r>
       <r>    0.6997    1.0000 </r>
       <r>    1.9029    1.0000 </r>
       <r>    1.9029    1.0000 </r>
       <r>    2.5471    1.0000 </r>
       <r>    2.5471    1.0000 </r>
       <r>    5.5714    0.0000 </r>
       <r>    5.5714    0.0000 </r>
       <r>    6.6189    0.0000 </r>
       <r>    6.6189    0.0000 </r>
       <r>    6.9543    0.0000 </r>
       <r>    6.9543    0.0000 </r>
       <r>    8.7112    0.0000 </r>
       <r>    8.7112    0.0000 </r>
       <r>   10.1229    0.0000 </r>
       <r>   10.1229    0.0000 </r>
       <r>   15.2027    0.0000 </r>
       <r>   15.2027    0.0000 </r>
       <r>   17.0449    0.0000 </r>
       <r>   17.0449    0.0000 </r>
       <r>   18.9057    0.0000 </r>
       <r>   18.9057    0.0000 </r>
       <r>   20.5015    0.0000 </r>
       <r>   20.5015    0.0000 </r>
       <r>   21.5283    0.0000 </r>
       <r>   21.5283    0.0000 </r>
       <r>   22.9202    0.0000 </r>
       <r>   22.9202    0.0000 </r>
       <r>   25.2450    0.0000 </r>
       <r>   25.2450    0.0000 </r>
       <r>   26.6645    0.0000 </r>
       <r>   26.6645    0.0000 </r>
       <r>   28.6310    0.0000 </r>
       <r>   28.6310    0.0000 </r>
       <r>   29.7214    0.0000 </r>
       <r>   29.7214    0.0000 </r>
       <r>   31.9546    0.0000 </r>
       <r>   31.9546    0.0000 </r>
       <r>   35.2497    0.0000 </r>
       <r>   35.2497    0.0000 </r>
       <r>   35.7303    0.0000 </r>
       <r>   35.7303    0.0000 </r>
       <r>   36.3038    0.0000 </r>
       <r>   36.3038    0.0000 </r>
       <r>   37.4265    0.0000 </r>
       <r>   37.4265    0.0000 </r>
       <r>   39.2754    0.0000 </r>
       <r>   39.2754    0.0000 </r>
       <r>   39.9200    0.0000 </r>
       <r>   39.9200    0.0000 </r>
       <r>   41.4048    0.0000 </r>
       <r>   41.4048    0.0000 </r>
       <r>   43.2217    0.0000 </r>
       <r>   43.2217    0.0000 </r>
       <r>   44.1270    0.0000 </r>
       <r>   44.1270    0.0000 </r>
       <r>   45.1352    0.0000 </r>
       <r>   45.1352    0.0000 </r>
       <r>   46.8794    0.0000 </r>
       <r>   46.8794    0.0000 </r>
       <r>   47.8353    0.0000 </r>
       <r>   47.8353    0.0000 </r>
       <r>   50.4126    0.0000 </r>
       <r>   50.4127    0.0000 </r>
       <r>   50.7328    0.0000 </r>
       <r>   50.7328    0.0000 </r>
       <r>   51.0557    0.0000 </r>
       <r>   51.0557    0.0000 </r>
       <r>   52.0047    0.0000 </r>
       <r>   52.0048    0.0000 </r>
       <r>   53.2481    0.0000 </r>
       <r>   53.2482    0.0000 </r>
       <r>   54.3437    0.0000 </r>
       <r>   54.3440    0.0000 </r>
       <r>   54.8056    0.0000 </r>
       <r>   54.8069    0.0000 </r>
       <r>   56.2987    0.0000 </r>
       <r>   56.3074    0.0000 </r>
       <r>   56.5506    0.0000 </r>
       <r>   56.5538    0.0000 </r>
      </set>
     </set>
    </set>
   </array>
  </eigenvalues>
  <separator name="orbital magnetization" >
   <v name="MAGDIPOLOUT">      0.00000000      0.00000000      0.00000000</v>
  </separator>
  <dos>
   <i name="efermi">      3.63263163 </i>
   <total>
    <array>
     <dimension dim="1">gridpoints</dimension>
     <dimension dim="2">spin</dimension>
     <field>energy</field>
     <field>total</field>
     <field>integrated</field>
     <set>
      <set comment="spin 1">
       <r>   -34.4877     0.0000     0.0000 </r>
       <r>   -34.1569     0.0000     0.0000 </r>
       <r>   -33.8262     0.0000     0.0000 </r>
       <r>   -33.4954     0.0000     0.0000 </r>
       <r>   -33.1647     0.0000     0.0000 </r>
       <r>   -32.8339     0.0000     0.0000 </r>
       <r>   -32.5031     0.0000     0.0000 </r>
       <r>   -32.1724     0.0000     0.0000 </r>
       <r>   -31.8416     0.0000     0.0000 </r>
       <r>   -31.5108     0.0000     0.0000 </r>
       <r>   -31.1801     0.0000     0.0000 </r>
       <r>   -30.8493     0.0000     0.0000 </r>
       <r>   -30.5186     0.0000     0.0000 </r>
       <r>   -30.1878     0.0000     0.0000 </r>
       <r>   -29.8570     4.0492     1.3393 </r>
       <r>   -29.5263    27.1985    10.3375 </r>
       <r>   -29.1955     4.9945    12.0000 </r>
       <r>   -28.8647     0.0000    12.0000 </r>
       <r>   -28.5340     0.0000    12.0000 </r>
       <r>   -28.2032     0.0000    12.0000 </r>
       <r>   -27.8725     0.0000    12.0000 </r>
       <r>   -27.5417     0.0000    12.0000 </r>
       <r>   -27.2109     0.0000    12.0000 </r>
       <r>   -26.8802     0.0000    12.0000 </r>
       <r>   -26.5494     0.0000    12.0000 </r>
       <r>   -26.2187     0.0000    12.0000 </r>
       <r>   -25.8879     0.0000    12.0000 </r>
       <r>   -25.5571     0.0000    12.0000 </r>
       <r>   -25.2264     0.0000    12.0000 </r>
       <r>   -24.8956     0.0000    12.0000 </r>
       <r>   -24.5648     0.0000    12.0000 </r>
       <r>   -24.2341     0.0000    12.0000 </r>
       <r>   -23.9033     0.0000    12.0000 </r>
       <r>   -23.5726     0.0000    12.0000 </r>
       <r>   -23.2418     0.0000    12.0000 </r>
       <r>   -22.9110     0.0000    12.0000 </r>
       <r>   -22.5803     0.0000    12.0000 </r>
       <r>   -22.2495     0.0000    12.0000 </r>
       <r>   -21.9187     0.0000    12.0000 </r>
       <r>   -21.5880     0.0000    12.0000 </r>
       <r>   -21.2572     0.0000    12.0000 </r>
       <r>   -20.9265     0.0000    12.0000 </r>
       <r>   -20.5957     0.0000    12.0000 </r>
       <r>   -20.2649     0.0000    12.0000 </r>
       <r>   -19.9342     0.0000    12.0000 </r>
       <r>   -19.6034     0.0000    12.0000 </r>
       <r>   -19.2726     0.0000    12.0000 </r>
       <r>   -18.9419     0.0000    12.0000 </r>
       <r>   -18.6111     0.0000    12.0000 </r>
       <r>   -18.2804     0.0000    12.0000 </r>
       <r>   -17.9496     0.0000    12.0000 </r>
       <r>   -17.6188     0.0000    12.0000 </r>
       <r>   -17.2881     0.0000    12.0000 </r>
       <r>   -16.9573     0.0000    12.0000 </r>
       <r>   -16.6266     0.0000    12.0000 </r>
       <r>   -16.2958     0.0000    12.0000 </r>
       <r>   -15.9650     0.0000    12.0000 </r>
       <r>   -15.6343     0.0000    12.0000 </r>
       <r>   -15.3035     0.0000    12.0000 </r>
       <r>   -14.9727     0.0000    12.0000 </r>
       <r>   -14.6420     0.1259    12.0416 </r>
       <r>   -14.3112     0.6713    12.2637 </r>
       <r>   -13.9805     1.7298    12.8359 </r>
       <r>   -13.6497     3.5598    14.0135 </r>
       <r>   -13.3189     5.6089    15.8689 </r>
       <r>   -12.9882     9.6409    19.0587 </r>
       <r>   -12.6574     2.8204    20.0000 </r>
       <r>   -12.3266     0.0000    20.0000 </r>
       <r>   -11.9959     0.0000    20.0000 </r>
       <r>   -11.6651     0.0000    20.0000 </r>
       <r>   -11.3344     0.0000    20.0000 </r>
       <r>   -11.0036     0.0000    20.0000 </r>
       <r>   -10.6728     0.0000    20.0000 </r>
       <r>   -10.3421     0.0000    20.0000 </r>
       <r>   -10.0113     0.0000    20.0000 </r>
       <r>    -9.6805     0.0000    20.0000 </r>
       <r>    -9.3498     0.0000    20.0000 </r>
       <r>    -9.0190     0.0000    20.0000 </r>
       <r>    -8.6883     0.0000    20.0000 </r>
       <r>    -8.3575     0.0000    20.0000 </r>
       <r>    -8.0267     0.0000    20.0000 </r>
       <r>    -7.6960     0.0000    20.0000 </r>
       <r>    -7.3652     0.0000    20.0000 </r>
       <r>    -7.0344     0.0000    20.0000 </r>
       <r>    -6.7037     0.0000    20.0000 </r>
       <r>    -6.3729     0.0000    20.0000 </r>
       <r>    -6.0422     0.0000    20.0000 </r>
       <r>    -5.7114     0.0000    20.0000 </r>
       <r>    -5.3806     0.0000    20.0000 </r>
       <r>    -5.0499     0.0000    20.0000 </r>
       <r>    -4.7191     0.0000    20.0000 </r>
       <r>    -4.3884     0.0000    20.0000 </r>
       <r>    -4.0576     0.0000    20.0000 </r>
       <r>    -3.7268     0.0000    20.0000 </r>
       <r>    -3.3961     0.0000    20.0000 </r>
       <r>    -3.0653     0.0000    20.0000 </r>
       <r>    -2.7345     0.0000    20.0000 </r>
       <r>    -2.4038     0.0179    20.0059 </r>
       <r>    -2.0730     0.8921    20.3010 </r>
       <r>    -1.7423     1.4870    20.7928 </r>
       <r>    -1.4115     4.6967    22.3463 </r>
       <r>    -1.0807     6.7938    24.5946 </r>
       <r>    -0.7500     6.5109    26.7509 </r>
       <r>    -0.4192     4.9374    28.3887 </r>
       <r>    -0.0884     3.4134    29.5188 </r>
       <r>     0.2423     4.6175    31.0469 </r>
       <r>     0.5731     3.0127    32.0444 </r>
       <r>     0.9038     5.9653    34.0192 </r>
       <r>     1.2346     5.2027    35.7410 </r>
       <r>     1.5654     5.6595    37.6171 </r>
       <r>     1.8961     5.1823    39.3326 </r>
       <r>     2.2269     5.1795    41.0469 </r>
       <r>     2.5577     4.9111    42.6729 </r>
       <r>     2.8884     2.8241    43.6084 </r>
       <r>     3.2192     0.9389    43.9199 </r>
       <r>     3.5499     0.2422    44.0000 </r>
       <r>     3.8807     0.0000    44.0000 </r>
       <r>     4.2115     0.0000    44.0000 </r>
       <r>     4.5422     0.0000    44.0000 </r>
       <r>     4.8730     0.0000    44.0000 </r>
       <r>     5.2038     0.0307    44.0102 </r>
       <r>     5.5345     2.6718    44.8939 </r>
       <r>     5.8653     4.4019    46.3514 </r>
       <r>     6.1960     6.9182    48.6409 </r>
       <r>     6.5268     7.0497    50.9729 </r>
       <r>     6.8576     7.1195    53.3306 </r>
       <r>     7.1883     4.5004    54.8213 </r>
       <r>     7.5191     2.9874    55.8100 </r>
       <r>     7.8498     0.5192    55.9828 </r>
       <r>     8.1806     0.3453    56.0971 </r>
       <r>     8.5114     2.4542    56.9089 </r>
       <r>     8.8421     3.3217    58.0088 </r>
       <r>     9.1729     2.4872    58.8316 </r>
       <r>     9.5037     3.8169    60.0947 </r>
       <r>     9.8344     4.4524    61.5696 </r>
       <r>    10.1652     3.2524    62.6507 </r>
       <r>    10.4959     3.3711    63.7665 </r>
       <r>    10.8267     0.6106    63.9693 </r>
       <r>    11.1575     0.1055    64.0046 </r>
       <r>    11.4882     0.0704    64.0279 </r>
       <r>    11.8190     0.1144    64.0658 </r>
       <r>    12.1498     0.1810    64.1256 </r>
       <r>    12.4805     0.2040    64.1931 </r>
       <r>    12.8113     0.4592    64.3450 </r>
       <r>    13.1420     0.4682    64.5000 </r>
       <r>    13.4728     0.1986    64.5657 </r>
       <r>    13.8036     0.8570    64.8495 </r>
       <r>    14.1343     0.6610    65.0681 </r>
       <r>    14.4651     1.1852    65.4602 </r>
       <r>    14.7959     1.1687    65.8468 </r>
       <r>    15.1266     2.7880    66.7691 </r>
       <r>    15.4574     1.4367    67.2457 </r>
       <r>    15.7881     1.1398    67.6230 </r>
       <r>    16.1189     1.3586    68.0732 </r>
       <r>    16.4497     0.8506    68.3545 </r>
       <r>    16.7804     1.2880    68.7806 </r>
       <r>    17.1112     1.8444    69.3908 </r>
       <r>    17.4420     1.9206    70.0274 </r>
       <r>    17.7727     1.2495    70.4417 </r>
       <r>    18.1035     3.1117    71.4709 </r>
       <r>    18.4342     2.3267    72.2412 </r>
       <r>    18.7650     5.0773    73.9208 </r>
       <r>    19.0958     2.1577    74.6361 </r>
       <r>    19.4265     2.5663    75.4871 </r>
       <r>    19.7573     1.7162    76.0559 </r>
       <r>    20.0880     0.7585    76.3080 </r>
       <r>    20.4188     1.7066    76.8729 </r>
       <r>    20.7496     2.9282    77.8428 </r>
       <r>    21.0803     3.0354    78.8481 </r>
       <r>    21.4111     4.1877    80.2351 </r>
       <r>    21.7419     2.8989    81.1961 </r>
       <r>    22.0726     3.0966    82.2221 </r>
       <r>    22.4034     2.0598    82.9050 </r>
       <r>    22.7341     2.4038    83.7010 </r>
       <r>    23.0649     1.6891    84.2619 </r>
       <r>    23.3957     2.2603    85.0101 </r>
       <r>    23.7264     1.9614    85.6589 </r>
       <r>    24.0572     1.5039    86.1571 </r>
       <r>    24.3880     0.9013    86.4553 </r>
       <r>    24.7187     1.4848    86.9464 </r>
       <r>    25.0495     1.5062    87.4459 </r>
       <r>    25.3802    14.0716    92.1016 </r>
       <r>    25.7110     1.5520    92.6164 </r>
       <r>    26.0418     2.1667    93.3347 </r>
       <r>    26.3725     1.2987    93.7660 </r>
       <r>    26.7033     3.0663    94.7809 </r>
       <r>    27.0341     2.4485    95.5919 </r>
       <r>    27.3648     2.4132    96.3901 </r>
       <r>    27.6956     1.4630    96.8757 </r>
       <r>    28.0263     1.7161    97.4434 </r>
       <r>    28.3571     2.2782    98.1974 </r>
       <r>    28.6879     3.2142    99.2610 </r>
       <r>    29.0186     1.1123    99.6301 </r>
       <r>    29.3494     3.1471   100.6715 </r>
       <r>    29.6802     3.5136   101.8343 </r>
       <r>    30.0109     3.4348   102.9717 </r>
       <r>    30.3417     1.9265   103.6139 </r>
       <r>    30.6724     2.2902   104.3715 </r>
       <r>    31.0032     2.9537   105.3488 </r>
       <r>    31.3340     2.1192   106.0506 </r>
       <r>    31.6647     2.7245   106.9529 </r>
       <r>    31.9955     2.4653   107.7703 </r>
       <r>    32.3262     3.4678   108.9180 </r>
       <r>    32.6570     2.4253   109.7209 </r>
       <r>    32.9878     1.7397   110.2987 </r>
       <r>    33.3185     2.5416   111.1396 </r>
       <r>    33.6493     3.4007   112.2649 </r>
       <r>    33.9801     1.4099   112.7316 </r>
       <r>    34.3108     1.0004   113.0625 </r>
       <r>    34.6416     1.7311   113.6355 </r>
       <r>    34.9723     3.0485   114.6458 </r>
       <r>    35.3031     2.2010   115.3750 </r>
       <r>    35.6339     2.5992   116.2351 </r>
       <r>    35.9646     2.7202   117.1354 </r>
       <r>    36.2954     3.3244   118.2354 </r>
       <r>    36.6262     2.3177   119.0031 </r>
       <r>    36.9569     2.8266   119.9390 </r>
       <r>    37.2877     1.7347   120.5167 </r>
       <r>    37.6184     1.5469   121.0284 </r>
       <r>    37.9492     3.0831   122.0484 </r>
       <r>    38.2800     2.3251   122.8196 </r>
       <r>    38.6107     2.1643   123.5367 </r>
       <r>    38.9415     3.3231   124.6360 </r>
       <r>    39.2723     2.7755   125.5552 </r>
       <r>    39.6030     2.4887   126.3796 </r>
       <r>    39.9338     3.2851   127.4675 </r>
       <r>    40.2645     2.7080   128.3634 </r>
       <r>    40.5953     2.4795   129.1850 </r>
       <r>    40.9261     3.5507   130.3604 </r>
       <r>    41.2568     4.1961   131.7497 </r>
       <r>    41.5876     3.9268   133.0500 </r>
       <r>    41.9184     3.6294   134.2524 </r>
       <r>    42.2491     4.4078   135.7107 </r>
       <r>    42.5799     4.2978   137.1332 </r>
       <r>    42.9106     4.5265   138.6320 </r>
       <r>    43.2414     3.5621   139.8106 </r>
       <r>    43.5722     4.4117   141.2698 </r>
       <r>    43.9029     4.7041   142.8268 </r>
       <r>    44.2337     3.2494   143.9022 </r>
       <r>    44.5644     4.2110   145.2973 </r>
       <r>    44.8952     5.3188   147.0566 </r>
       <r>    45.2260     2.8603   148.0048 </r>
       <r>    45.5567     2.0814   148.6948 </r>
       <r>    45.8875     3.2082   149.7562 </r>
       <r>    46.2183     4.4006   151.2125 </r>
       <r>    46.5490     2.7394   152.1193 </r>
       <r>    46.8798     3.4564   153.2626 </r>
       <r>    47.2105     1.9313   153.9020 </r>
       <r>    47.5413     3.8160   155.1643 </r>
       <r>    47.8721     4.0460   156.5029 </r>
       <r>    48.2028     2.7986   157.4309 </r>
       <r>    48.5336     3.0484   158.4395 </r>
       <r>    48.8644     2.8117   159.3699 </r>
       <r>    49.1951     2.5376   160.2093 </r>
       <r>    49.5259     2.3227   160.9795 </r>
       <r>    49.8566     3.0964   162.0042 </r>
       <r>    50.1874     3.1786   163.0572 </r>
       <r>    50.5182     1.8790   163.6787 </r>
       <r>    50.8489     4.2745   165.0937 </r>
       <r>    51.1797     3.4588   166.2401 </r>
       <r>    51.5105     2.5580   167.0866 </r>
       <r>    51.8412     2.9234   168.0538 </r>
       <r>    52.1720     2.9933   169.0463 </r>
       <r>    52.5027     3.1025   170.0730 </r>
       <r>    52.8335     4.0190   171.4032 </r>
       <r>    53.1643     3.9235   172.7018 </r>
       <r>    53.4950     3.8893   173.9909 </r>
       <r>    53.8258     3.5440   175.1631 </r>
       <r>    54.1566     3.3910   176.2860 </r>
       <r>    54.4873     4.3781   177.7347 </r>
       <r>    54.8181     2.6244   178.6050 </r>
       <r>    55.1488     3.0891   179.6270 </r>
       <r>    55.4796     4.3943   181.0834 </r>
       <r>    55.8104     3.4435   182.2240 </r>
       <r>    56.1411     2.7583   183.1365 </r>
       <r>    56.4719     2.6864   184.0251 </r>
       <r>    56.8026     2.9533   185.0021 </r>
       <r>    57.1334     4.3557   186.4455 </r>
       <r>    57.4642     3.3550   187.5556 </r>
       <r>    57.7949     3.0652   188.5702 </r>
       <r>    58.1257     2.4486   189.3829 </r>
       <r>    58.4565     2.6917   190.2736 </r>
       <r>    58.7872     1.7380   190.8487 </r>
       <r>    59.1180     2.0317   191.5209 </r>
       <r>    59.4487     0.6736   191.7438 </r>
       <r>    59.7795     0.5826   191.9365 </r>
       <r>    60.1103     0.0430   191.9507 </r>
       <r>    60.4410     0.1490   192.0000 </r>
       <r>    60.7718     0.0000   192.0000 </r>
       <r>    61.1026     0.0000   192.0000 </r>
       <r>    61.4333     0.0000   192.0000 </r>
       <r>    61.7641     0.0000   192.0000 </r>
       <r>    62.0948     0.0000   192.0000 </r>
       <r>    62.4256     0.0000   192.0000 </r>
       <r>    62.7564     0.0000   192.0000 </r>
       <r>    63.0871     0.0000   192.0000 </r>
       <r>    63.4179     0.0000   192.0000 </r>
       <r>    63.7487     0.0000   192.0000 </r>
       <r>    64.0794     0.0000   192.0000 </r>
       <r>    64.4102     0.0000   192.0000 </r>
       <r>    64.7409     0.0000   192.0000 </r>
      </set>
     </set>
    </array>
   </total>
  </dos>
 </calculation>
 <structure name="finalpos" >
  <crystal>
   <varray name="basis" >
    <v>       4.60094756      -0.00000000       0.00000000 </v>
    <v>       0.00000000       4.60094756       0.00000000 </v>
    <v>      -0.00000000      -0.00000000       2.94242885 </v>
   </varray>
   <i name="volume">     62.28744797 </i>
   <varray name="rec_basis" >
    <v>       0.21734653      -0.00000000       0.00000000 </v>
    <v>       0.00000000       0.21734653       0.00000000 </v>
    <v>      -0.00000000      -0.00000000       0.33985529 </v>
   </varray>
  </crystal>
  <varray name="positions" >
   <v>       0.50000000       0.50000000       0.50000000 </v>
   <v>       0.00000000       0.00000000       0.00000000 </v>
   <v>       0.19567008       0.80432992       0.50000000 </v>
   <v>       0.80432992       0.19567008       0.50000000 </v>
   <v>       0.30432992       0.30432992       0.00000000 </v>
   <v>       0.69567008       0.69567008       0.00000000 </v>
  </varray>
 </structure>
</modeling>
