<?xml version="1.0" encoding="ISO-8859-1"?>
<modeling>
 <generator>
  <i name="program" type="string">vasp </i>
  <i name="version" type="string">6.3.0  </i>
  <i name="subversion" type="string">20Jan22 (build Jan  3 2023 14:01:18) complex                          parallel </i>
  <i name="platform" type="string">LinuxGNU </i>
  <i name="date" type="string">2023 05 03 </i>
  <i name="time" type="string">10:16:15 </i>
 </generator>
 <incar>
  <i type="string" name="PREC">Accurate</i>
  <i type="string" name="ALGO">Normal</i>
  <i type="int" name="NELM">   100</i>
  <i type="int" name="IBRION">    -1</i>
  <i name="EDIFF">      0.00001000</i>
  <i type="int" name="NSW">     0</i>
  <i type="int" name="ISYM">     0</i>
  <i name="ENCUT">    350.00000000</i>
  <i type="int" name="NBANDS">    24</i>
  <i type="int" name="NEDOS">  2000</i>
  <i type="logical" name="LREAL"> F  </i>
  <i type="int" name="ISMEAR">     0</i>
  <i name="SIGMA">      0.05000000</i>
  <i type="logical" name="LWAVE"> T  </i>
  <i type="int" name="LORBIT">    14</i>
  <i type="logical" name="LOPTICS"> T  </i>
  <i type="logical" name="LASPH"> T  </i>
  <i type="int" name="ICORELEVEL">     0</i>
  <i type="logical" name="LVEL"> T  </i>
 </incar>
 <primitive_cell>
  <structure name="primitive_cell" >
   <crystal>
    <varray name="basis" >
     <v>       0.00000000       3.27032600       3.27032600 </v>
     <v>       3.27032600       0.00000000       3.27032600 </v>
     <v>       3.27032600       3.27032600       0.00000000 </v>
    </varray>
    <i name="volume">     69.95248340 </i>
    <varray name="rec_basis" >
     <v>      -0.15288996       0.15288996       0.15288996 </v>
     <v>       0.15288996      -0.15288996       0.15288996 </v>
     <v>       0.15288996       0.15288996      -0.15288996 </v>
    </varray>
   </crystal>
   <varray name="positions" >
    <v>       0.00000000       0.00000000       0.00000000 </v>
    <v>       0.25000000       0.25000000       0.25000000 </v>
   </varray>
  </structure>
  <varray name="primitive_index" >
   <v type="int" >        1 </v>
   <v type="int" >        2 </v>
  </varray>
 </primitive_cell>
 <kpoints>
  <generation param="Gamma">
   <v type="int" name="divisions">       4        4        4 </v>
   <v name="usershift">      0.00000000       0.00000000       0.00000000 </v>
   <v name="genvec1">      0.25000000      -0.00000000       0.00000000 </v>
   <v name="genvec2">     -0.00000000       0.25000000      -0.00000000 </v>
   <v name="genvec3">      0.00000000       0.00000000       0.25000000 </v>
   <v name="shift">      0.00000000       0.00000000       0.00000000 </v>
  </generation>
  <varray name="kpointlist" >
   <v>       0.00000000       0.00000000       0.00000000 </v>
   <v>       0.25000000       0.00000000       0.00000000 </v>
   <v>       0.00000000       0.25000000       0.00000000 </v>
   <v>       0.00000000       0.00000000       0.25000000 </v>
   <v>       0.25000000       0.25000000       0.25000000 </v>
   <v>       0.50000000       0.00000000       0.00000000 </v>
   <v>       0.00000000       0.50000000       0.00000000 </v>
   <v>       0.00000000       0.00000000       0.50000000 </v>
   <v>       0.50000000       0.50000000       0.50000000 </v>
   <v>       0.25000000       0.25000000       0.00000000 </v>
   <v>       0.00000000       0.25000000       0.25000000 </v>
   <v>       0.25000000       0.00000000       0.25000000 </v>
   <v>       0.50000000       0.25000000       0.00000000 </v>
   <v>       0.00000000       0.50000000       0.25000000 </v>
   <v>       0.25000000       0.00000000       0.50000000 </v>
   <v>       0.25000000       0.25000000      -0.25000000 </v>
   <v>       0.50000000       0.25000000       0.50000000 </v>
   <v>       0.25000000       0.50000000       0.00000000 </v>
   <v>       0.25000000      -0.25000000      -0.25000000 </v>
   <v>       0.50000000       0.50000000       0.25000000 </v>
   <v>       0.00000000       0.25000000       0.50000000 </v>
   <v>      -0.25000000       0.25000000      -0.25000000 </v>
   <v>       0.25000000       0.50000000       0.50000000 </v>
   <v>       0.50000000       0.00000000       0.25000000 </v>
   <v>      -0.25000000       0.25000000       0.00000000 </v>
   <v>       0.00000000      -0.25000000       0.25000000 </v>
   <v>       0.25000000       0.00000000      -0.25000000 </v>
   <v>       0.25000000       0.25000000       0.50000000 </v>
   <v>      -0.25000000       0.50000000      -0.25000000 </v>
   <v>       0.50000000      -0.25000000      -0.25000000 </v>
   <v>       0.50000000       0.50000000       0.00000000 </v>
   <v>       0.00000000       0.50000000       0.50000000 </v>
   <v>       0.50000000       0.00000000       0.50000000 </v>
   <v>      -0.25000000       0.50000000       0.25000000 </v>
   <v>       0.25000000      -0.25000000       0.50000000 </v>
   <v>       0.50000000       0.25000000      -0.25000000 </v>
  </varray>
  <varray name="weights" >
   <v>       0.01562500 </v>
   <v>       0.03125000 </v>
   <v>       0.03125000 </v>
   <v>       0.03125000 </v>
   <v>       0.03125000 </v>
   <v>       0.01562500 </v>
   <v>       0.01562500 </v>
   <v>       0.01562500 </v>
   <v>       0.01562500 </v>
   <v>       0.03125000 </v>
   <v>       0.03125000 </v>
   <v>       0.03125000 </v>
   <v>       0.03125000 </v>
   <v>       0.03125000 </v>
   <v>       0.03125000 </v>
   <v>       0.03125000 </v>
   <v>       0.03125000 </v>
   <v>       0.03125000 </v>
   <v>       0.03125000 </v>
   <v>       0.03125000 </v>
   <v>       0.03125000 </v>
   <v>       0.03125000 </v>
   <v>       0.03125000 </v>
   <v>       0.03125000 </v>
   <v>       0.03125000 </v>
   <v>       0.03125000 </v>
   <v>       0.03125000 </v>
   <v>       0.03125000 </v>
   <v>       0.03125000 </v>
   <v>       0.03125000 </v>
   <v>       0.01562500 </v>
   <v>       0.01562500 </v>
   <v>       0.01562500 </v>
   <v>       0.03125000 </v>
   <v>       0.03125000 </v>
   <v>       0.03125000 </v>
  </varray>
 </kpoints>
 <parameters>
  <separator name="general" >
   <i type="string" name="SYSTEM">unknown system</i>
   <i type="logical" name="LCOMPAT"> F  </i>
  </separator>
  <separator name="electronic" >
   <i type="string" name="PREC">accura</i>
   <i name="ENMAX">    350.00000000</i>
   <i name="ENAUG">    456.10600000</i>
   <i name="EDIFF">      0.00001000</i>
   <i type="int" name="IALGO">    38</i>
   <i type="int" name="IWAVPR">    10</i>
   <i type="int" name="NBANDS">    24</i>
   <i type="int" name="NBANDSLOW">    -1</i>
   <i type="int" name="NBANDSHIGH">    -1</i>
   <i name="NELECT">     18.00000000</i>
   <i type="int" name="TURBO">     0</i>
   <i type="int" name="IRESTART">     0</i>
   <i type="int" name="NREBOOT">     0</i>
   <i type="int" name="NMIN">     0</i>
   <i name="EREF">      0.00000000</i>
   <separator name="electronic smearing" >
    <i type="int" name="ISMEAR">     0</i>
    <i name="SIGMA">      0.05000000</i>
    <i name="KSPACING">      0.50000000</i>
    <i type="logical" name="KGAMMA"> T  </i>
    <i type="logical" name="KBLOWUP"> T  </i>
   </separator>
   <separator name="electronic projectors" >
    <i type="logical" name="LREAL"> F  </i>
    <v name="ROPT">      0.00000000      0.00000000</v>
    <i type="int" name="LMAXPAW">  -100</i>
    <i type="int" name="LMAXMIX">     2</i>
    <i type="logical" name="NLSPLINE"> F  </i>
   </separator>
   <separator name="electronic startup" >
    <i type="int" name="ISTART">     0</i>
    <i type="int" name="ICHARG">     2</i>
    <i type="int" name="INIWAV">     1</i>
   </separator>
   <separator name="electronic spin" >
    <i type="int" name="ISPIN">     1</i>
    <i type="logical" name="LNONCOLLINEAR"> F  </i>
    <v name="MAGMOM">      1.00000000      1.00000000</v>
    <i name="NUPDOWN">     -1.00000000</i>
    <i type="logical" name="LSORBIT"> F  </i>
    <v name="SAXIS">      0.00000000      0.00000000      1.00000000</v>
    <i type="logical" name="LSPIRAL"> F  </i>
    <v name="QSPIRAL">      0.00000000      0.00000000      0.00000000</v>
    <i type="logical" name="LZEROZ"> F  </i>
   </separator>
   <separator name="electronic exchange-correlation" >
    <i type="logical" name="LASPH"> T  </i>
    <i type="logical" name="LMETAGGA"> F  </i>
   </separator>
   <separator name="electronic convergence" >
    <i type="int" name="NELM">   100</i>
    <i type="int" name="NELMDL">    -5</i>
    <i type="int" name="NELMIN">     2</i>
    <i name="ENINI">    350.00000000</i>
    <separator name="electronic convergence detail" >
     <i type="logical" name="LDIAG"> T  </i>
     <i type="logical" name="LSUBROT"> F  </i>
     <i name="WEIMIN">      0.00000000</i>
     <i name="EBREAK">      0.00000010</i>
     <i name="DEPER">      0.30000000</i>
     <i type="int" name="NRMM">     4</i>
     <i name="TIME">      0.40000000</i>
    </separator>
   </separator>
   <separator name="electronic mixer" >
    <i name="AMIX">      0.40000000</i>
    <i name="BMIX">      1.00000000</i>
    <i name="AMIN">      0.10000000</i>
    <i name="AMIX_MAG">      1.60000000</i>
    <i name="BMIX_MAG">      1.00000000</i>
    <separator name="electronic mixer details" >
     <i type="int" name="IMIX">     4</i>
     <i type="logical" name="MIXFIRST"> F  </i>
     <i type="int" name="MAXMIX">   -45</i>
     <i name="WC">    100.00000000</i>
     <i type="int" name="INIMIX">     1</i>
     <i type="int" name="MIXPRE">     1</i>
     <i type="int" name="MREMOVE">     5</i>
    </separator>
   </separator>
   <separator name="electronic dipolcorrection" >
    <i type="logical" name="LDIPOL"> F  </i>
    <i type="logical" name="LMONO"> F  </i>
    <i type="int" name="IDIPOL">     0</i>
    <i name="EPSILON">      1.00000000</i>
    <v name="DIPOL">   -100.00000000   -100.00000000   -100.00000000</v>
    <i name="EFIELD">      0.00000000</i>
   </separator>
  </separator>
  <separator name="grids" >
   <i type="int" name="NGX">    28</i>
   <i type="int" name="NGY">    28</i>
   <i type="int" name="NGZ">    28</i>
   <i type="int" name="NGXF">    56</i>
   <i type="int" name="NGYF">    56</i>
   <i type="int" name="NGZF">    56</i>
   <i type="logical" name="ADDGRID"> F  </i>
  </separator>
  <separator name="ionic" >
   <i type="int" name="NSW">     0</i>
   <i type="int" name="IBRION">    -1</i>
   <i type="int" name="MDALGO">     0</i>
   <i type="int" name="ISIF">     2</i>
   <i name="PSTRESS">      0.00000000</i>
   <i name="EDIFFG">      0.00010000</i>
   <i type="int" name="NFREE">     0</i>
   <i name="POTIM">      0.50000000</i>
   <i name="SMASS">     -3.00000000</i>
   <i name="SCALEE">      1.00000000</i>
  </separator>
  <separator name="ionic md" >
   <i name="TEBEG">      0.00010000</i>
   <i name="TEEND">      0.00010000</i>
   <i type="int" name="NBLOCK">     1</i>
   <i type="int" name="KBLOCK">     1</i>
   <i type="int" name="NPACO">   256</i>
   <i name="APACO">     10.00000000</i>
  </separator>
  <separator name="symmetry" >
   <i type="int" name="ISYM">     0</i>
   <i name="SYMPREC">      0.00001000</i>
  </separator>
  <separator name="dos" >
   <i type="int" name="LORBIT">    14</i>
   <v name="RWIGS">     -1.00000000     -1.00000000</v>
   <i type="int" name="NEDOS">  2000</i>
   <i name="EMIN">     10.00000000</i>
   <i name="EMAX">    -10.00000000</i>
   <i name="EFERMI">      0.00000000</i>
  </separator>
  <separator name="writing" >
   <i type="int" name="NWRITE">     2</i>
   <i type="logical" name="LWAVE"> T  </i>
   <i type="logical" name="LDOWNSAMPLE"> F  </i>
   <i type="logical" name="LCHARG"> T  </i>
   <i type="logical" name="LPARD"> F  </i>
   <i type="logical" name="LVTOT"> F  </i>
   <i type="logical" name="LVHAR"> F  </i>
   <i type="logical" name="LELF"> F  </i>
   <i type="logical" name="LOPTICS"> T  </i>
   <v name="STM">      0.00000000      0.00000000      0.00000000      0.00000000      0.00000000      0.00000000      0.00000000</v>
  </separator>
  <separator name="performance" >
   <i type="int" name="NPAR">     1</i>
   <i type="int" name="NSIM">     4</i>
   <i type="int" name="NBLK">    -1</i>
   <i type="logical" name="LPLANE"> T  </i>
   <i type="logical" name="LSCALAPACK"> T  </i>
   <i type="logical" name="LSCAAWARE"> F  </i>
   <i type="logical" name="LSCALU"> F  </i>
   <i type="logical" name="LASYNC"> F  </i>
   <i type="logical" name="LORBITALREAL"> F  </i>
  </separator>
  <separator name="miscellaneous" >
   <i type="int" name="IDIOT">     3</i>
   <i type="int" name="PHON_NSTRUCT">    -1</i>
   <i type="logical" name="LMUSIC"> F  </i>
   <v name="POMASS">    112.41100000    127.60000000</v>
   <v name="DARWINR">      0.00000000      0.00000000</v>
   <v name="DARWINV">      1.00000000      1.00000000</v>
   <i type="logical" name="LCORR"> T  </i>
  </separator>
  <i type="logical" name="GGA_COMPAT"> T  </i>
  <i type="logical" name="LBERRY"> F  </i>
  <i type="int" name="ICORELEVEL">     0</i>
  <i type="logical" name="LDAU"> F  </i>
  <i type="int" name="I_CONSTRAINED_M">     0</i>
  <separator name="electronic exchange-correlation" >
   <i type="string" name="GGA">--</i>
   <i type="int" name="VOSKOWN">     0</i>
   <i type="logical" name="LHFCALC"> F  </i>
   <i type="string" name="PRECFOCK"></i>
   <i type="logical" name="LSYMGRAD"> F  </i>
   <i type="logical" name="LHFONE"> F  </i>
   <i type="logical" name="LRHFCALC"> F  </i>
   <i type="logical" name="LTHOMAS"> F  </i>
   <i type="logical" name="LMODELHF"> F  </i>
   <i type="logical" name="LFOCKACE"> F  </i>
   <i name="ENCUT4O">     -1.00000000</i>
   <i type="int" name="EXXOEP">     0</i>
   <i type="int" name="FOURORBIT">     0</i>
   <i name="AEXX">      0.00000000</i>
   <i name="HFALPHA">      0.00000000</i>
   <i name="MCALPHA">      0.00000000</i>
   <i name="ALDAX">      1.00000000</i>
   <i name="AGGAX">      1.00000000</i>
   <i name="ALDAC">      1.00000000</i>
   <i name="AGGAC">      1.00000000</i>
   <i type="int" name="NKREDX">     1</i>
   <i type="int" name="NKREDY">     1</i>
   <i type="int" name="NKREDZ">     1</i>
   <i type="logical" name="SHIFTRED"> F  </i>
   <i type="logical" name="ODDONLY"> F  </i>
   <i type="logical" name="EVENONLY"> F  </i>
   <i type="int" name="LMAXFOCK">     0</i>
   <i type="int" name="NMAXFOCKAE">     0</i>
   <i type="logical" name="LFOCKAEDFT"> F  </i>
   <i name="HFSCREEN">      0.00000000</i>
   <i name="HFSCREENC">      0.00000000</i>
   <i type="int" name="NBANDSGWLOW">     0</i>
  </separator>
  <separator name="vdW DFT" >
   <i type="logical" name="LUSE_VDW"> F  </i>
   <i name="Zab_VDW">     -0.84910000</i>
   <i name="PARAM1">      0.12340000</i>
   <i name="PARAM2">      1.00000000</i>
   <i name="PARAM3">      0.00000000</i>
  </separator>
  <separator name="model GW" >
   <i type="int" name="MODEL_GW">     0</i>
   <i name="MODEL_EPS0">     20.98574502</i>
   <i name="MODEL_ALPHA">      1.00000000</i>
  </separator>
  <separator name="linear response parameters" >
   <i type="logical" name="LEPSILON"> F  </i>
   <i type="logical" name="LRPA"> F  </i>
   <i type="logical" name="LNABLA"> F  </i>
   <i type="logical" name="LVEL"> T  </i>
   <i name="CSHIFT">      0.10000000</i>
   <i name="OMEGAMAX">     -1.00000000</i>
   <i name="DEG_THRESHOLD">      0.00200000</i>
   <i name="RTIME">     -0.10000000</i>
   <i name="WPLASMAI">      0.00000000</i>
   <v name="DFIELD">      0.00000000      0.00000000      0.00000000</v>
   <v name="WPLASMA">      0.00000000      0.00000000      0.00000000      0.00000000      0.00000000      0.00000000      0.00000000      0.00000000      0.00000000</v>
  </separator>
  <separator name="orbital magnetization" >
   <i type="logical" name="NUCIND"> F  </i>
   <v name="MAGPOS">      0.00000000      0.00000000      0.00000000</v>
   <i type="logical" name="LNICSALL"> T  </i>
   <i type="logical" name="ORBITALMAG"> F  </i>
   <i type="logical" name="LMAGBLOCH"> F  </i>
   <i type="logical" name="LCHIMAG"> F  </i>
   <i type="logical" name="LGAUGE"> T  </i>
   <i type="int" name="MAGATOM">     0</i>
   <v name="MAGDIPOL">      0.00000000      0.00000000      0.00000000</v>
   <v name="AVECCONST">      0.00000000      0.00000000      0.00000000</v>
  </separator>
  <separator name="response functions" >
   <i type="logical" name="LFINITE_TEMPERATURE"> F  </i>
   <i type="logical" name="LADDER"> F  </i>
   <i type="logical" name="LRPAFORCE"> F  </i>
   <i type="logical" name="LFXC"> F  </i>
   <i type="logical" name="LHARTREE"> T  </i>
   <i type="int" name="IBSE">     0</i>
   <v type="int" name="KPOINT">    -1     0     0     0</v>
   <i type="logical" name="LTCTC"> F  </i>
   <i type="logical" name="LTCTE"> F  </i>
   <i type="logical" name="LTETE"> F  </i>
   <i type="logical" name="LTRIPLET"> F  </i>
   <i type="logical" name="LFXCEPS"> F  </i>
   <i type="logical" name="LFXHEG"> F  </i>
   <i type="int" name="NATURALO">     2</i>
   <i type="logical" name="LHOLEGF"> F  </i>
   <i type="logical" name="L2ORDER"> F  </i>
   <i type="logical" name="LDMP1"> F  </i>
   <i type="logical" name="LMP2LT"> F  </i>
   <i type="logical" name="LSMP2LT"> F  </i>
   <i type="logical" name="LGWLF"> F  </i>
   <i name="ENCUTGW">     -2.00000000</i>
   <i name="ENCUTGWSOFT">     -2.00000000</i>
   <i name="ENCUTLF">     -1.00000000</i>
   <i type="logical" name="LESF_SPLINES"> F  </i>
   <i type="int" name="LMAXMP2">    -1</i>
   <i name="SCISSOR">      0.00000000</i>
   <i type="int" name="NOMEGA">     0</i>
   <i type="int" name="NOMEGAR">     0</i>
   <i type="int" name="NBANDSGW">    -1</i>
   <i type="int" name="NBANDSO">    -1</i>
   <i type="int" name="NBANDSV">    -1</i>
   <i type="int" name="NELMGW">     1</i>
   <i type="int" name="NELMHF">     1</i>
   <i type="int" name="DIM">     3</i>
   <i type="int" name="IESPILON">     4</i>
   <i type="int" name="ANTIRES">     0</i>
   <i name="OMEGAMAX">    -30.00000000</i>
   <i name="OMEGAMIN">    -30.00000000</i>
   <i name="OMEGATL">   -200.00000000</i>
   <i type="int" name="OMEGAGRID">     0</i>
   <i name="CSHIFT">     -0.10000000</i>
   <i type="logical" name="LSELFENERGY"> F  </i>
   <i type="logical" name="LSPECTRAL"> F  </i>
   <i type="logical" name="LSPECTRALGW"> F  </i>
   <i type="logical" name="LSINGLES"> F  </i>
   <i type="logical" name="LFERMIGW"> F  </i>
   <i type="logical" name="ODDONLYGW"> F  </i>
   <i type="logical" name="EVENONLYGW"> F  </i>
   <i type="int" name="NKREDLFX">     1</i>
   <i type="int" name="NKREDLFY">     1</i>
   <i type="int" name="NKREDLFZ">     1</i>
   <i type="int" name="MAXMEM">  2800</i>
   <i type="int" name="TELESCOPE">     0</i>
   <i type="int" name="NTAUPAR">    -1</i>
   <i type="int" name="NOMEGAPAR">    -1</i>
   <i name="DAMP_NEWTON">      0.80000001</i>
   <i name="LAMBDA">      1.00000000</i>
  </separator>
  <separator name="External order field" >
   <i name="OFIELD_KAPPA">      0.00000000</i>
   <v name="OFIELD_K">      0.00000000      0.00000000      0.00000000</v>
   <i name="OFIELD_Q6_NEAR">      0.00000000</i>
   <i name="OFIELD_Q6_FAR">      0.00000000</i>
   <i name="OFIELD_A">      0.00000000</i>
  </separator>
  <separator name="optional k-points parameters" >
   <i type="int" name="KPOINTS_OPT_MODE">     1</i>
   <i type="logical" name="LKPOINTS_OPT"> F  </i>
  </separator>
 </parameters>
 <atominfo>
  <atoms>       2 </atoms>
  <types>       2 </types>
  <array name="atoms" >
   <dimension dim="1">ion</dimension>
   <field type="string">element</field>
   <field type="int">atomtype</field>
   <set>
    <rc><c>Cd</c><c>   1</c></rc>
    <rc><c>Te</c><c>   2</c></rc>
   </set>
  </array>
  <array name="atomtypes" >
   <dimension dim="1">type</dimension>
   <field type="int">atomspertype</field>
   <field type="string">element</field>
   <field>mass</field>
   <field>valence</field>
   <field type="string">pseudopotential</field>
   <set>
    <rc><c>   1</c><c>Cd</c><c>    112.41100000</c><c>     12.00000000</c><c>  PAW_PBE Cd 06Sep2000                  </c></rc>
    <rc><c>   1</c><c>Te</c><c>    127.60000000</c><c>      6.00000000</c><c>  PAW_PBE Te 08Apr2002                  </c></rc>
   </set>
  </array>
 </atominfo>
 <structure name="initialpos" >
  <crystal>
   <varray name="basis" >
    <v>       0.00000000       3.27032600       3.27032600 </v>
    <v>       3.27032600       0.00000000       3.27032600 </v>
    <v>       3.27032600       3.27032600       0.00000000 </v>
   </varray>
   <i name="volume">     69.95248340 </i>
   <varray name="rec_basis" >
    <v>      -0.15288996       0.15288996       0.15288996 </v>
    <v>       0.15288996      -0.15288996       0.15288996 </v>
    <v>       0.15288996       0.15288996      -0.15288996 </v>
   </varray>
  </crystal>
  <varray name="positions" >
   <v>       0.00000000       0.00000000       0.00000000 </v>
   <v>       0.25000000       0.25000000       0.25000000 </v>
  </varray>
 </structure>
 <calculation>
  <scstep>
   <time name="dav">    0.48    0.55</time>
   <time name="total">    0.57    0.66</time>
   <energy>
    <i name="alphaZ">     48.85038211 </i>
    <i name="ewald">  -1035.57388720 </i>
    <i name="hartreedc">   -515.23334019 </i>
    <i name="XCdc">    -22.72473751 </i>
    <i name="pawpsdc">   1404.43023187 </i>
    <i name="pawaedc">  -1332.16472941 </i>
    <i name="eentropy">     -0.00006893 </i>
    <i name="bandstr">     16.11455536 </i>
    <i name="atom">   1516.40148808 </i>
    <i name="e_fr_energy">     80.09989416 </i>
    <i name="e_wo_entrp">     80.09996310 </i>
    <i name="e_0_energy">     80.09992863 </i>
   </energy>
  </scstep>
  <scstep>
   <time name="dav">    0.46    0.47</time>
   <time name="total">    0.46    0.47</time>
   <energy>
    <i name="e_fr_energy">     -2.05399701 </i>
    <i name="e_wo_entrp">     -2.05399701 </i>
    <i name="e_0_energy">     -2.05399701 </i>
   </energy>
  </scstep>
  <scstep>
   <time name="dav">    0.46    0.48</time>
   <time name="total">    0.46    0.48</time>
   <energy>
    <i name="e_fr_energy">     -4.95814794 </i>
    <i name="e_wo_entrp">     -4.95814794 </i>
    <i name="e_0_energy">     -4.95814794 </i>
   </energy>
  </scstep>
  <scstep>
   <time name="dav">    0.47    0.48</time>
   <time name="total">    0.47    0.48</time>
   <energy>
    <i name="e_fr_energy">     -4.98416491 </i>
    <i name="e_wo_entrp">     -4.98416491 </i>
    <i name="e_0_energy">     -4.98416491 </i>
   </energy>
  </scstep>
  <scstep>
   <time name="dav">    0.45    0.45</time>
   <time name="total">    0.47    0.48</time>
   <energy>
    <i name="e_fr_energy">     -4.98432044 </i>
    <i name="e_wo_entrp">     -4.98432044 </i>
    <i name="e_0_energy">     -4.98432044 </i>
   </energy>
  </scstep>
  <scstep>
   <time name="dav">    0.42    0.44</time>
   <time name="total">    0.55    0.59</time>
   <energy>
    <i name="e_fr_energy">     -4.75440648 </i>
    <i name="e_wo_entrp">     -4.75440648 </i>
    <i name="e_0_energy">     -4.75440648 </i>
   </energy>
  </scstep>
  <scstep>
   <time name="dav">    0.42    0.43</time>
   <time name="total">    0.54    0.56</time>
   <energy>
    <i name="e_fr_energy">     -4.73523696 </i>
    <i name="e_wo_entrp">     -4.73523696 </i>
    <i name="e_0_energy">     -4.73523696 </i>
   </energy>
  </scstep>
  <scstep>
   <time name="dav">    0.42    0.43</time>
   <time name="total">    0.54    0.56</time>
   <energy>
    <i name="e_fr_energy">     -4.73643224 </i>
    <i name="e_wo_entrp">     -4.73643224 </i>
    <i name="e_0_energy">     -4.73643224 </i>
   </energy>
  </scstep>
  <scstep>
   <time name="dav">    0.44    0.45</time>
   <time name="total">    0.55    0.57</time>
   <energy>
    <i name="e_fr_energy">     -4.73669618 </i>
    <i name="e_wo_entrp">     -4.73669618 </i>
    <i name="e_0_energy">     -4.73669618 </i>
   </energy>
  </scstep>
  <scstep>
   <time name="dav">    0.42    0.42</time>
   <time name="total">    0.53    0.54</time>
   <energy>
    <i name="e_fr_energy">     -4.73680741 </i>
    <i name="e_wo_entrp">     -4.73680741 </i>
    <i name="e_0_energy">     -4.73680741 </i>
   </energy>
  </scstep>
  <scstep>
   <time name="dav">    0.39    0.39</time>
   <time name="total">    0.51    0.51</time>
   <energy>
    <i name="e_fr_energy">     -4.73685223 </i>
    <i name="e_wo_entrp">     -4.73685223 </i>
    <i name="e_0_energy">     -4.73685223 </i>
   </energy>
  </scstep>
  <scstep>
   <time name="dav">    0.36    0.37</time>
   <time name="total">    0.46    0.46</time>
   <energy>
    <i name="alphaZ">     48.85038211 </i>
    <i name="ewald">  -1035.57388720 </i>
    <i name="hartreedc">   -508.97815829 </i>
    <i name="XCdc">    -22.63323858 </i>
    <i name="pawpsdc">   1718.99155531 </i>
    <i name="pawaedc">  -1646.30909625 </i>
    <i name="eentropy">     -0.00000000 </i>
    <i name="bandstr">    -75.48589767 </i>
    <i name="atom">   1516.40148808 </i>
    <i name="e_fr_energy">     -4.73685250 </i>
    <i name="e_wo_entrp">     -4.73685250 </i>
    <i name="e_0_energy">     -4.73685250 </i>
   </energy>
  </scstep>
  <structure>
   <crystal>
    <varray name="basis" >
     <v>       0.00000000       3.27032600       3.27032600 </v>
     <v>       3.27032600       0.00000000       3.27032600 </v>
     <v>       3.27032600       3.27032600       0.00000000 </v>
    </varray>
    <i name="volume">     69.95248340 </i>
    <varray name="rec_basis" >
     <v>      -0.15288996       0.15288996       0.15288996 </v>
     <v>       0.15288996      -0.15288996       0.15288996 </v>
     <v>       0.15288996       0.15288996      -0.15288996 </v>
    </varray>
   </crystal>
   <varray name="positions" >
    <v>       0.00000000       0.00000000       0.00000000 </v>
    <v>       0.25000000       0.25000000       0.25000000 </v>
   </varray>
  </structure>
  <varray name="forces" >
   <v>      -0.00000979      -0.00000874      -0.00000829 </v>
   <v>       0.00000979       0.00000874       0.00000829 </v>
  </varray>
  <varray name="stress" >
   <v>      14.01990093       0.00032677       0.00045187 </v>
   <v>       0.00032651      14.02011055       0.00048305 </v>
   <v>       0.00045213       0.00048386      14.01986647 </v>
  </varray>
  <energy>
   <i name="e_fr_energy">     -4.73685250 </i>
   <i name="e_wo_entrp">     -4.73685250 </i>
   <i name="e_0_energy">     -4.73685250 </i>
  </energy>
  <time name="totalsc">    6.57    6.87</time>
  <eigenvalues>
   <array>
    <dimension dim="1">band</dimension>
    <dimension dim="2">kpoint</dimension>
    <dimension dim="3">spin</dimension>
    <field>eigene</field>
    <field>occ</field>
    <set>
     <set comment="spin 1">
      <set comment="kpoint 1">
       <r>   -8.8871    1.0000 </r>
       <r>   -6.0875    1.0000 </r>
       <r>   -6.0875    1.0000 </r>
       <r>   -6.0875    1.0000 </r>
       <r>   -5.8481    1.0000 </r>
       <r>   -5.8481    1.0000 </r>
       <r>    2.1291    1.0000 </r>
       <r>    2.1291    1.0000 </r>
       <r>    2.1291    1.0000 </r>
       <r>    2.7993    0.0000 </r>
       <r>    6.7276    0.0000 </r>
       <r>    6.7276    0.0000 </r>
       <r>    6.7277    0.0000 </r>
       <r>    9.5446    0.0000 </r>
       <r>   11.4245    0.0000 </r>
       <r>   11.4245    0.0000 </r>
       <r>   12.2085    0.0000 </r>
       <r>   12.2085    0.0000 </r>
       <r>   12.2085    0.0000 </r>
       <r>   14.5999    0.0000 </r>
       <r>   21.6855    0.0000 </r>
       <r>   21.6855    0.0000 </r>
       <r>   21.6855    0.0000 </r>
       <r>   22.5866    0.0000 </r>
      </set>
      <set comment="kpoint 2">
       <r>   -8.6997    1.0000 </r>
       <r>   -6.0543    1.0000 </r>
       <r>   -6.0543    1.0000 </r>
       <r>   -5.8961    1.0000 </r>
       <r>   -5.8485    1.0000 </r>
       <r>   -5.8485    1.0000 </r>
       <r>   -0.5360    1.0000 </r>
       <r>    1.7218    1.0000 </r>
       <r>    1.7218    1.0000 </r>
       <r>    4.0552    0.0000 </r>
       <r>    7.2616    0.0000 </r>
       <r>    7.2616    0.0000 </r>
       <r>    7.4381    0.0000 </r>
       <r>   10.4156    0.0000 </r>
       <r>   10.5450    0.0000 </r>
       <r>   10.5450    0.0000 </r>
       <r>   12.9042    0.0000 </r>
       <r>   15.1748    0.0000 </r>
       <r>   15.1748    0.0000 </r>
       <r>   17.5032    0.0000 </r>
       <r>   17.5032    0.0000 </r>
       <r>   17.5052    0.0000 </r>
       <r>   17.9973    0.0000 </r>
       <r>   22.0245    0.0000 </r>
      </set>
      <set comment="kpoint 3">
       <r>   -8.6997    1.0000 </r>
       <r>   -6.0543    1.0000 </r>
       <r>   -6.0543    1.0000 </r>
       <r>   -5.8961    1.0000 </r>
       <r>   -5.8485    1.0000 </r>
       <r>   -5.8485    1.0000 </r>
       <r>   -0.5360    1.0000 </r>
       <r>    1.7218    1.0000 </r>
       <r>    1.7218    1.0000 </r>
       <r>    4.0552    0.0000 </r>
       <r>    7.2616    0.0000 </r>
       <r>    7.2616    0.0000 </r>
       <r>    7.4381    0.0000 </r>
       <r>   10.4156    0.0000 </r>
       <r>   10.5450    0.0000 </r>
       <r>   10.5450    0.0000 </r>
       <r>   12.9042    0.0000 </r>
       <r>   15.1748    0.0000 </r>
       <r>   15.1748    0.0000 </r>
       <r>   17.5032    0.0000 </r>
       <r>   17.5032    0.0000 </r>
       <r>   17.5052    0.0000 </r>
       <r>   17.9973    0.0000 </r>
       <r>   22.0245    0.0000 </r>
      </set>
      <set comment="kpoint 4">
       <r>   -8.6997    1.0000 </r>
       <r>   -6.0543    1.0000 </r>
       <r>   -6.0543    1.0000 </r>
       <r>   -5.8961    1.0000 </r>
       <r>   -5.8485    1.0000 </r>
       <r>   -5.8485    1.0000 </r>
       <r>   -0.5360    1.0000 </r>
       <r>    1.7218    1.0000 </r>
       <r>    1.7218    1.0000 </r>
       <r>    4.0552    0.0000 </r>
       <r>    7.2616    0.0000 </r>
       <r>    7.2616    0.0000 </r>
       <r>    7.4381    0.0000 </r>
       <r>   10.4156    0.0000 </r>
       <r>   10.5450    0.0000 </r>
       <r>   10.5450    0.0000 </r>
       <r>   12.9042    0.0000 </r>
       <r>   15.1748    0.0000 </r>
       <r>   15.1748    0.0000 </r>
       <r>   17.5032    0.0000 </r>
       <r>   17.5032    0.0000 </r>
       <r>   17.5052    0.0000 </r>
       <r>   17.9973    0.0000 </r>
       <r>   22.0245    0.0000 </r>
      </set>
      <set comment="kpoint 5">
       <r>   -8.6997    1.0000 </r>
       <r>   -6.0543    1.0000 </r>
       <r>   -6.0543    1.0000 </r>
       <r>   -5.8961    1.0000 </r>
       <r>   -5.8485    1.0000 </r>
       <r>   -5.8485    1.0000 </r>
       <r>   -0.5360    1.0000 </r>
       <r>    1.7218    1.0000 </r>
       <r>    1.7218    1.0000 </r>
       <r>    4.0552    0.0000 </r>
       <r>    7.2616    0.0000 </r>
       <r>    7.2616    0.0000 </r>
       <r>    7.4381    0.0000 </r>
       <r>   10.4156    0.0000 </r>
       <r>   10.5450    0.0000 </r>
       <r>   10.5450    0.0000 </r>
       <r>   12.9042    0.0000 </r>
       <r>   15.1748    0.0000 </r>
       <r>   15.1748    0.0000 </r>
       <r>   17.5032    0.0000 </r>
       <r>   17.5032    0.0000 </r>
       <r>   17.5052    0.0000 </r>
       <r>   17.9973    0.0000 </r>
       <r>   22.0245    0.0000 </r>
      </set>
      <set comment="kpoint 6">
       <r>   -8.5157    1.0000 </r>
       <r>   -6.0292    1.0000 </r>
       <r>   -6.0292    1.0000 </r>
       <r>   -5.8403    1.0000 </r>
       <r>   -5.8403    1.0000 </r>
       <r>   -5.5142    1.0000 </r>
       <r>   -2.1550    1.0000 </r>
       <r>    1.3910    1.0000 </r>
       <r>    1.3910    1.0000 </r>
       <r>    3.9028    0.0000 </r>
       <r>    7.3085    0.0000 </r>
       <r>    7.3085    0.0000 </r>
       <r>    9.1778    0.0000 </r>
       <r>   10.6791    0.0000 </r>
       <r>   12.3582    0.0000 </r>
       <r>   12.3582    0.0000 </r>
       <r>   13.3227    0.0000 </r>
       <r>   13.6617    0.0000 </r>
       <r>   13.6617    0.0000 </r>
       <r>   17.9233    0.0000 </r>
       <r>   19.4102    0.0000 </r>
       <r>   19.4102    0.0000 </r>
       <r>   20.0880    0.0000 </r>
       <r>   20.4184    0.0000 </r>
      </set>
      <set comment="kpoint 7">
       <r>   -8.5157    1.0000 </r>
       <r>   -6.0292    1.0000 </r>
       <r>   -6.0292    1.0000 </r>
       <r>   -5.8403    1.0000 </r>
       <r>   -5.8403    1.0000 </r>
       <r>   -5.5142    1.0000 </r>
       <r>   -2.1550    1.0000 </r>
       <r>    1.3910    1.0000 </r>
       <r>    1.3910    1.0000 </r>
       <r>    3.9028    0.0000 </r>
       <r>    7.3085    0.0000 </r>
       <r>    7.3085    0.0000 </r>
       <r>    9.1778    0.0000 </r>
       <r>   10.6791    0.0000 </r>
       <r>   12.3582    0.0000 </r>
       <r>   12.3582    0.0000 </r>
       <r>   13.3227    0.0000 </r>
       <r>   13.6617    0.0000 </r>
       <r>   13.6617    0.0000 </r>
       <r>   17.9233    0.0000 </r>
       <r>   19.4102    0.0000 </r>
       <r>   19.4102    0.0000 </r>
       <r>   20.0880    0.0000 </r>
       <r>   20.4184    0.0000 </r>
      </set>
      <set comment="kpoint 8">
       <r>   -8.5157    1.0000 </r>
       <r>   -6.0292    1.0000 </r>
       <r>   -6.0292    1.0000 </r>
       <r>   -5.8403    1.0000 </r>
       <r>   -5.8403    1.0000 </r>
       <r>   -5.5142    1.0000 </r>
       <r>   -2.1550    1.0000 </r>
       <r>    1.3910    1.0000 </r>
       <r>    1.3910    1.0000 </r>
       <r>    3.9028    0.0000 </r>
       <r>    7.3085    0.0000 </r>
       <r>    7.3085    0.0000 </r>
       <r>    9.1778    0.0000 </r>
       <r>   10.6791    0.0000 </r>
       <r>   12.3582    0.0000 </r>
       <r>   12.3582    0.0000 </r>
       <r>   13.3227    0.0000 </r>
       <r>   13.6617    0.0000 </r>
       <r>   13.6617    0.0000 </r>
       <r>   17.9233    0.0000 </r>
       <r>   19.4102    0.0000 </r>
       <r>   19.4102    0.0000 </r>
       <r>   20.0880    0.0000 </r>
       <r>   20.4184    0.0000 </r>
      </set>
      <set comment="kpoint 9">
       <r>   -8.5157    1.0000 </r>
       <r>   -6.0292    1.0000 </r>
       <r>   -6.0292    1.0000 </r>
       <r>   -5.8403    1.0000 </r>
       <r>   -5.8403    1.0000 </r>
       <r>   -5.5142    1.0000 </r>
       <r>   -2.1550    1.0000 </r>
       <r>    1.3910    1.0000 </r>
       <r>    1.3910    1.0000 </r>
       <r>    3.9028    0.0000 </r>
       <r>    7.3085    0.0000 </r>
       <r>    7.3085    0.0000 </r>
       <r>    9.1778    0.0000 </r>
       <r>   10.6791    0.0000 </r>
       <r>   12.3582    0.0000 </r>
       <r>   12.3582    0.0000 </r>
       <r>   13.3227    0.0000 </r>
       <r>   13.6617    0.0000 </r>
       <r>   13.6617    0.0000 </r>
       <r>   17.9233    0.0000 </r>
       <r>   19.4102    0.0000 </r>
       <r>   19.4102    0.0000 </r>
       <r>   20.0880    0.0000 </r>
       <r>   20.4184    0.0000 </r>
      </set>
      <set comment="kpoint 10">
       <r>   -8.6390    1.0000 </r>
       <r>   -6.0164    1.0000 </r>
       <r>   -6.0164    1.0000 </r>
       <r>   -5.9341    1.0000 </r>
       <r>   -5.8339    1.0000 </r>
       <r>   -5.8160    1.0000 </r>
       <r>   -0.4984    1.0000 </r>
       <r>    1.0954    1.0000 </r>
       <r>    1.0954    1.0000 </r>
       <r>    5.0105    0.0000 </r>
       <r>    5.4698    0.0000 </r>
       <r>    8.5359    0.0000 </r>
       <r>    8.5359    0.0000 </r>
       <r>    8.9165    0.0000 </r>
       <r>   11.9528    0.0000 </r>
       <r>   12.6596    0.0000 </r>
       <r>   13.8561    0.0000 </r>
       <r>   13.8561    0.0000 </r>
       <r>   14.2680    0.0000 </r>
       <r>   17.2018    0.0000 </r>
       <r>   17.2018    0.0000 </r>
       <r>   18.1092    0.0000 </r>
       <r>   18.4158    0.0000 </r>
       <r>   19.6265    0.0000 </r>
      </set>
      <set comment="kpoint 11">
       <r>   -8.6390    1.0000 </r>
       <r>   -6.0164    1.0000 </r>
       <r>   -6.0164    1.0000 </r>
       <r>   -5.9341    1.0000 </r>
       <r>   -5.8339    1.0000 </r>
       <r>   -5.8160    1.0000 </r>
       <r>   -0.4984    1.0000 </r>
       <r>    1.0954    1.0000 </r>
       <r>    1.0954    1.0000 </r>
       <r>    5.0105    0.0000 </r>
       <r>    5.4698    0.0000 </r>
       <r>    8.5359    0.0000 </r>
       <r>    8.5359    0.0000 </r>
       <r>    8.9165    0.0000 </r>
       <r>   11.9528    0.0000 </r>
       <r>   12.6596    0.0000 </r>
       <r>   13.8561    0.0000 </r>
       <r>   13.8561    0.0000 </r>
       <r>   14.2680    0.0000 </r>
       <r>   17.2018    0.0000 </r>
       <r>   17.2018    0.0000 </r>
       <r>   18.1092    0.0000 </r>
       <r>   18.4158    0.0000 </r>
       <r>   19.6265    0.0000 </r>
      </set>
      <set comment="kpoint 12">
       <r>   -8.6390    1.0000 </r>
       <r>   -6.0164    1.0000 </r>
       <r>   -6.0164    1.0000 </r>
       <r>   -5.9341    1.0000 </r>
       <r>   -5.8339    1.0000 </r>
       <r>   -5.8160    1.0000 </r>
       <r>   -0.4984    1.0000 </r>
       <r>    1.0954    1.0000 </r>
       <r>    1.0954    1.0000 </r>
       <r>    5.0105    0.0000 </r>
       <r>    5.4698    0.0000 </r>
       <r>    8.5359    0.0000 </r>
       <r>    8.5359    0.0000 </r>
       <r>    8.9165    0.0000 </r>
       <r>   11.9528    0.0000 </r>
       <r>   12.6596    0.0000 </r>
       <r>   13.8561    0.0000 </r>
       <r>   13.8561    0.0000 </r>
       <r>   14.2680    0.0000 </r>
       <r>   17.2018    0.0000 </r>
       <r>   17.2018    0.0000 </r>
       <r>   18.1092    0.0000 </r>
       <r>   18.4158    0.0000 </r>
       <r>   19.6265    0.0000 </r>
      </set>
      <set comment="kpoint 13">
       <r>   -8.4599    1.0000 </r>
       <r>   -5.9980    1.0000 </r>
       <r>   -5.9816    1.0000 </r>
       <r>   -5.8847    1.0000 </r>
       <r>   -5.8335    1.0000 </r>
       <r>   -5.4606    1.0000 </r>
       <r>   -1.8369    1.0000 </r>
       <r>    0.1405    1.0000 </r>
       <r>    0.8165    1.0000 </r>
       <r>    5.0716    0.0000 </r>
       <r>    6.5919    0.0000 </r>
       <r>    8.2793    0.0000 </r>
       <r>    8.8188    0.0000 </r>
       <r>   11.0381    0.0000 </r>
       <r>   12.5603    0.0000 </r>
       <r>   13.0921    0.0000 </r>
       <r>   13.4000    0.0000 </r>
       <r>   14.1297    0.0000 </r>
       <r>   16.8772    0.0000 </r>
       <r>   17.1546    0.0000 </r>
       <r>   17.5472    0.0000 </r>
       <r>   18.5543    0.0000 </r>
       <r>   18.5987    0.0000 </r>
       <r>   19.4269    0.0000 </r>
      </set>
      <set comment="kpoint 14">
       <r>   -8.4599    1.0000 </r>
       <r>   -5.9980    1.0000 </r>
       <r>   -5.9816    1.0000 </r>
       <r>   -5.8847    1.0000 </r>
       <r>   -5.8335    1.0000 </r>
       <r>   -5.4606    1.0000 </r>
       <r>   -1.8369    1.0000 </r>
       <r>    0.1405    1.0000 </r>
       <r>    0.8165    1.0000 </r>
       <r>    5.0716    0.0000 </r>
       <r>    6.5919    0.0000 </r>
       <r>    8.2793    0.0000 </r>
       <r>    8.8188    0.0000 </r>
       <r>   11.0381    0.0000 </r>
       <r>   12.5603    0.0000 </r>
       <r>   13.0921    0.0000 </r>
       <r>   13.4000    0.0000 </r>
       <r>   14.1297    0.0000 </r>
       <r>   16.8772    0.0000 </r>
       <r>   17.1546    0.0000 </r>
       <r>   17.5472    0.0000 </r>
       <r>   18.5543    0.0000 </r>
       <r>   18.5987    0.0000 </r>
       <r>   19.4269    0.0000 </r>
      </set>
      <set comment="kpoint 15">
       <r>   -8.4599    1.0000 </r>
       <r>   -5.9980    1.0000 </r>
       <r>   -5.9816    1.0000 </r>
       <r>   -5.8847    1.0000 </r>
       <r>   -5.8335    1.0000 </r>
       <r>   -5.4606    1.0000 </r>
       <r>   -1.8369    1.0000 </r>
       <r>    0.1405    1.0000 </r>
       <r>    0.8165    1.0000 </r>
       <r>    5.0716    0.0000 </r>
       <r>    6.5919    0.0000 </r>
       <r>    8.2793    0.0000 </r>
       <r>    8.8188    0.0000 </r>
       <r>   11.0381    0.0000 </r>
       <r>   12.5603    0.0000 </r>
       <r>   13.0921    0.0000 </r>
       <r>   13.4000    0.0000 </r>
       <r>   14.1297    0.0000 </r>
       <r>   16.8772    0.0000 </r>
       <r>   17.1546    0.0000 </r>
       <r>   17.5472    0.0000 </r>
       <r>   18.5543    0.0000 </r>
       <r>   18.5987    0.0000 </r>
       <r>   19.4269    0.0000 </r>
      </set>
      <set comment="kpoint 16">
       <r>   -8.4599    1.0000 </r>
       <r>   -5.9980    1.0000 </r>
       <r>   -5.9816    1.0000 </r>
       <r>   -5.8847    1.0000 </r>
       <r>   -5.8335    1.0000 </r>
       <r>   -5.4606    1.0000 </r>
       <r>   -1.8369    1.0000 </r>
       <r>    0.1405    1.0000 </r>
       <r>    0.8165    1.0000 </r>
       <r>    5.0716    0.0000 </r>
       <r>    6.5919    0.0000 </r>
       <r>    8.2793    0.0000 </r>
       <r>    8.8188    0.0000 </r>
       <r>   11.0381    0.0000 </r>
       <r>   12.5603    0.0000 </r>
       <r>   13.0921    0.0000 </r>
       <r>   13.4000    0.0000 </r>
       <r>   14.1297    0.0000 </r>
       <r>   16.8772    0.0000 </r>
       <r>   17.1546    0.0000 </r>
       <r>   17.5472    0.0000 </r>
       <r>   18.5543    0.0000 </r>
       <r>   18.5987    0.0000 </r>
       <r>   19.4269    0.0000 </r>
      </set>
      <set comment="kpoint 17">
       <r>   -8.4599    1.0000 </r>
       <r>   -5.9980    1.0000 </r>
       <r>   -5.9816    1.0000 </r>
       <r>   -5.8847    1.0000 </r>
       <r>   -5.8335    1.0000 </r>
       <r>   -5.4606    1.0000 </r>
       <r>   -1.8369    1.0000 </r>
       <r>    0.1405    1.0000 </r>
       <r>    0.8165    1.0000 </r>
       <r>    5.0716    0.0000 </r>
       <r>    6.5919    0.0000 </r>
       <r>    8.2793    0.0000 </r>
       <r>    8.8188    0.0000 </r>
       <r>   11.0381    0.0000 </r>
       <r>   12.5603    0.0000 </r>
       <r>   13.0921    0.0000 </r>
       <r>   13.4000    0.0000 </r>
       <r>   14.1297    0.0000 </r>
       <r>   16.8772    0.0000 </r>
       <r>   17.1546    0.0000 </r>
       <r>   17.5472    0.0000 </r>
       <r>   18.5543    0.0000 </r>
       <r>   18.5987    0.0000 </r>
       <r>   19.4269    0.0000 </r>
      </set>
      <set comment="kpoint 18">
       <r>   -8.4599    1.0000 </r>
       <r>   -5.9980    1.0000 </r>
       <r>   -5.9816    1.0000 </r>
       <r>   -5.8847    1.0000 </r>
       <r>   -5.8335    1.0000 </r>
       <r>   -5.4606    1.0000 </r>
       <r>   -1.8369    1.0000 </r>
       <r>    0.1405    1.0000 </r>
       <r>    0.8165    1.0000 </r>
       <r>    5.0716    0.0000 </r>
       <r>    6.5919    0.0000 </r>
       <r>    8.2793    0.0000 </r>
       <r>    8.8188    0.0000 </r>
       <r>   11.0381    0.0000 </r>
       <r>   12.5603    0.0000 </r>
       <r>   13.0921    0.0000 </r>
       <r>   13.4000    0.0000 </r>
       <r>   14.1297    0.0000 </r>
       <r>   16.8772    0.0000 </r>
       <r>   17.1546    0.0000 </r>
       <r>   17.5472    0.0000 </r>
       <r>   18.5543    0.0000 </r>
       <r>   18.5987    0.0000 </r>
       <r>   19.4269    0.0000 </r>
      </set>
      <set comment="kpoint 19">
       <r>   -8.4599    1.0000 </r>
       <r>   -5.9980    1.0000 </r>
       <r>   -5.9816    1.0000 </r>
       <r>   -5.8847    1.0000 </r>
       <r>   -5.8335    1.0000 </r>
       <r>   -5.4606    1.0000 </r>
       <r>   -1.8369    1.0000 </r>
       <r>    0.1405    1.0000 </r>
       <r>    0.8165    1.0000 </r>
       <r>    5.0716    0.0000 </r>
       <r>    6.5919    0.0000 </r>
       <r>    8.2793    0.0000 </r>
       <r>    8.8188    0.0000 </r>
       <r>   11.0381    0.0000 </r>
       <r>   12.5603    0.0000 </r>
       <r>   13.0921    0.0000 </r>
       <r>   13.4000    0.0000 </r>
       <r>   14.1297    0.0000 </r>
       <r>   16.8772    0.0000 </r>
       <r>   17.1546    0.0000 </r>
       <r>   17.5472    0.0000 </r>
       <r>   18.5543    0.0000 </r>
       <r>   18.5987    0.0000 </r>
       <r>   19.4269    0.0000 </r>
      </set>
      <set comment="kpoint 20">
       <r>   -8.4599    1.0000 </r>
       <r>   -5.9980    1.0000 </r>
       <r>   -5.9816    1.0000 </r>
       <r>   -5.8847    1.0000 </r>
       <r>   -5.8335    1.0000 </r>
       <r>   -5.4606    1.0000 </r>
       <r>   -1.8369    1.0000 </r>
       <r>    0.1405    1.0000 </r>
       <r>    0.8165    1.0000 </r>
       <r>    5.0716    0.0000 </r>
       <r>    6.5919    0.0000 </r>
       <r>    8.2793    0.0000 </r>
       <r>    8.8188    0.0000 </r>
       <r>   11.0381    0.0000 </r>
       <r>   12.5603    0.0000 </r>
       <r>   13.0921    0.0000 </r>
       <r>   13.4000    0.0000 </r>
       <r>   14.1297    0.0000 </r>
       <r>   16.8772    0.0000 </r>
       <r>   17.1546    0.0000 </r>
       <r>   17.5472    0.0000 </r>
       <r>   18.5543    0.0000 </r>
       <r>   18.5987    0.0000 </r>
       <r>   19.4269    0.0000 </r>
      </set>
      <set comment="kpoint 21">
       <r>   -8.4599    1.0000 </r>
       <r>   -5.9980    1.0000 </r>
       <r>   -5.9816    1.0000 </r>
       <r>   -5.8847    1.0000 </r>
       <r>   -5.8335    1.0000 </r>
       <r>   -5.4606    1.0000 </r>
       <r>   -1.8369    1.0000 </r>
       <r>    0.1405    1.0000 </r>
       <r>    0.8165    1.0000 </r>
       <r>    5.0716    0.0000 </r>
       <r>    6.5919    0.0000 </r>
       <r>    8.2793    0.0000 </r>
       <r>    8.8188    0.0000 </r>
       <r>   11.0381    0.0000 </r>
       <r>   12.5603    0.0000 </r>
       <r>   13.0921    0.0000 </r>
       <r>   13.4000    0.0000 </r>
       <r>   14.1297    0.0000 </r>
       <r>   16.8772    0.0000 </r>
       <r>   17.1546    0.0000 </r>
       <r>   17.5472    0.0000 </r>
       <r>   18.5543    0.0000 </r>
       <r>   18.5987    0.0000 </r>
       <r>   19.4269    0.0000 </r>
      </set>
      <set comment="kpoint 22">
       <r>   -8.4599    1.0000 </r>
       <r>   -5.9980    1.0000 </r>
       <r>   -5.9816    1.0000 </r>
       <r>   -5.8847    1.0000 </r>
       <r>   -5.8335    1.0000 </r>
       <r>   -5.4606    1.0000 </r>
       <r>   -1.8369    1.0000 </r>
       <r>    0.1405    1.0000 </r>
       <r>    0.8165    1.0000 </r>
       <r>    5.0716    0.0000 </r>
       <r>    6.5919    0.0000 </r>
       <r>    8.2793    0.0000 </r>
       <r>    8.8188    0.0000 </r>
       <r>   11.0381    0.0000 </r>
       <r>   12.5603    0.0000 </r>
       <r>   13.0921    0.0000 </r>
       <r>   13.4000    0.0000 </r>
       <r>   14.1297    0.0000 </r>
       <r>   16.8772    0.0000 </r>
       <r>   17.1546    0.0000 </r>
       <r>   17.5472    0.0000 </r>
       <r>   18.5543    0.0000 </r>
       <r>   18.5987    0.0000 </r>
       <r>   19.4269    0.0000 </r>
      </set>
      <set comment="kpoint 23">
       <r>   -8.4599    1.0000 </r>
       <r>   -5.9980    1.0000 </r>
       <r>   -5.9816    1.0000 </r>
       <r>   -5.8847    1.0000 </r>
       <r>   -5.8335    1.0000 </r>
       <r>   -5.4606    1.0000 </r>
       <r>   -1.8369    1.0000 </r>
       <r>    0.1405    1.0000 </r>
       <r>    0.8165    1.0000 </r>
       <r>    5.0716    0.0000 </r>
       <r>    6.5919    0.0000 </r>
       <r>    8.2793    0.0000 </r>
       <r>    8.8188    0.0000 </r>
       <r>   11.0381    0.0000 </r>
       <r>   12.5603    0.0000 </r>
       <r>   13.0921    0.0000 </r>
       <r>   13.4000    0.0000 </r>
       <r>   14.1297    0.0000 </r>
       <r>   16.8772    0.0000 </r>
       <r>   17.1546    0.0000 </r>
       <r>   17.5472    0.0000 </r>
       <r>   18.5543    0.0000 </r>
       <r>   18.5987    0.0000 </r>
       <r>   19.4269    0.0000 </r>
      </set>
      <set comment="kpoint 24">
       <r>   -8.4599    1.0000 </r>
       <r>   -5.9980    1.0000 </r>
       <r>   -5.9816    1.0000 </r>
       <r>   -5.8847    1.0000 </r>
       <r>   -5.8335    1.0000 </r>
       <r>   -5.4606    1.0000 </r>
       <r>   -1.8369    1.0000 </r>
       <r>    0.1405    1.0000 </r>
       <r>    0.8165    1.0000 </r>
       <r>    5.0716    0.0000 </r>
       <r>    6.5919    0.0000 </r>
       <r>    8.2793    0.0000 </r>
       <r>    8.8188    0.0000 </r>
       <r>   11.0381    0.0000 </r>
       <r>   12.5603    0.0000 </r>
       <r>   13.0921    0.0000 </r>
       <r>   13.4000    0.0000 </r>
       <r>   14.1297    0.0000 </r>
       <r>   16.8772    0.0000 </r>
       <r>   17.1546    0.0000 </r>
       <r>   17.5472    0.0000 </r>
       <r>   18.5543    0.0000 </r>
       <r>   18.5987    0.0000 </r>
       <r>   19.4269    0.0000 </r>
      </set>
      <set comment="kpoint 25">
       <r>   -8.5181    1.0000 </r>
       <r>   -6.0143    1.0000 </r>
       <r>   -6.0120    1.0000 </r>
       <r>   -5.8556    1.0000 </r>
       <r>   -5.8541    1.0000 </r>
       <r>   -5.5818    1.0000 </r>
       <r>   -1.4900    1.0000 </r>
       <r>    0.0787    1.0000 </r>
       <r>    1.3615    1.0000 </r>
       <r>    5.1965    0.0000 </r>
       <r>    7.3220    0.0000 </r>
       <r>    7.7379    0.0000 </r>
       <r>    7.9393    0.0000 </r>
       <r>   10.1389    0.0000 </r>
       <r>   11.5680    0.0000 </r>
       <r>   13.1663    0.0000 </r>
       <r>   13.4241    0.0000 </r>
       <r>   14.0402    0.0000 </r>
       <r>   17.0646    0.0000 </r>
       <r>   17.1912    0.0000 </r>
       <r>   17.5060    0.0000 </r>
       <r>   18.3816    0.0000 </r>
       <r>   19.2306    0.0000 </r>
       <r>   19.9146    0.0000 </r>
      </set>
      <set comment="kpoint 26">
       <r>   -8.5181    1.0000 </r>
       <r>   -6.0143    1.0000 </r>
       <r>   -6.0120    1.0000 </r>
       <r>   -5.8556    1.0000 </r>
       <r>   -5.8541    1.0000 </r>
       <r>   -5.5818    1.0000 </r>
       <r>   -1.4900    1.0000 </r>
       <r>    0.0787    1.0000 </r>
       <r>    1.3615    1.0000 </r>
       <r>    5.1965    0.0000 </r>
       <r>    7.3220    0.0000 </r>
       <r>    7.7379    0.0000 </r>
       <r>    7.9393    0.0000 </r>
       <r>   10.1389    0.0000 </r>
       <r>   11.5680    0.0000 </r>
       <r>   13.1663    0.0000 </r>
       <r>   13.4241    0.0000 </r>
       <r>   14.0402    0.0000 </r>
       <r>   17.0646    0.0000 </r>
       <r>   17.1912    0.0000 </r>
       <r>   17.5060    0.0000 </r>
       <r>   18.3816    0.0000 </r>
       <r>   19.2306    0.0000 </r>
       <r>   19.9146    0.0000 </r>
      </set>
      <set comment="kpoint 27">
       <r>   -8.5181    1.0000 </r>
       <r>   -6.0143    1.0000 </r>
       <r>   -6.0120    1.0000 </r>
       <r>   -5.8556    1.0000 </r>
       <r>   -5.8541    1.0000 </r>
       <r>   -5.5818    1.0000 </r>
       <r>   -1.4900    1.0000 </r>
       <r>    0.0787    1.0000 </r>
       <r>    1.3615    1.0000 </r>
       <r>    5.1965    0.0000 </r>
       <r>    7.3220    0.0000 </r>
       <r>    7.7379    0.0000 </r>
       <r>    7.9393    0.0000 </r>
       <r>   10.1389    0.0000 </r>
       <r>   11.5680    0.0000 </r>
       <r>   13.1663    0.0000 </r>
       <r>   13.4241    0.0000 </r>
       <r>   14.0402    0.0000 </r>
       <r>   17.0646    0.0000 </r>
       <r>   17.1912    0.0000 </r>
       <r>   17.5060    0.0000 </r>
       <r>   18.3816    0.0000 </r>
       <r>   19.2306    0.0000 </r>
       <r>   19.9146    0.0000 </r>
      </set>
      <set comment="kpoint 28">
       <r>   -8.5181    1.0000 </r>
       <r>   -6.0143    1.0000 </r>
       <r>   -6.0120    1.0000 </r>
       <r>   -5.8556    1.0000 </r>
       <r>   -5.8541    1.0000 </r>
       <r>   -5.5818    1.0000 </r>
       <r>   -1.4900    1.0000 </r>
       <r>    0.0787    1.0000 </r>
       <r>    1.3615    1.0000 </r>
       <r>    5.1965    0.0000 </r>
       <r>    7.3220    0.0000 </r>
       <r>    7.7379    0.0000 </r>
       <r>    7.9393    0.0000 </r>
       <r>   10.1389    0.0000 </r>
       <r>   11.5680    0.0000 </r>
       <r>   13.1663    0.0000 </r>
       <r>   13.4241    0.0000 </r>
       <r>   14.0402    0.0000 </r>
       <r>   17.0646    0.0000 </r>
       <r>   17.1912    0.0000 </r>
       <r>   17.5060    0.0000 </r>
       <r>   18.3816    0.0000 </r>
       <r>   19.2306    0.0000 </r>
       <r>   19.9146    0.0000 </r>
      </set>
      <set comment="kpoint 29">
       <r>   -8.5181    1.0000 </r>
       <r>   -6.0143    1.0000 </r>
       <r>   -6.0120    1.0000 </r>
       <r>   -5.8556    1.0000 </r>
       <r>   -5.8541    1.0000 </r>
       <r>   -5.5818    1.0000 </r>
       <r>   -1.4900    1.0000 </r>
       <r>    0.0787    1.0000 </r>
       <r>    1.3615    1.0000 </r>
       <r>    5.1965    0.0000 </r>
       <r>    7.3220    0.0000 </r>
       <r>    7.7379    0.0000 </r>
       <r>    7.9393    0.0000 </r>
       <r>   10.1389    0.0000 </r>
       <r>   11.5680    0.0000 </r>
       <r>   13.1663    0.0000 </r>
       <r>   13.4241    0.0000 </r>
       <r>   14.0402    0.0000 </r>
       <r>   17.0646    0.0000 </r>
       <r>   17.1912    0.0000 </r>
       <r>   17.5060    0.0000 </r>
       <r>   18.3816    0.0000 </r>
       <r>   19.2306    0.0000 </r>
       <r>   19.9146    0.0000 </r>
      </set>
      <set comment="kpoint 30">
       <r>   -8.5181    1.0000 </r>
       <r>   -6.0143    1.0000 </r>
       <r>   -6.0120    1.0000 </r>
       <r>   -5.8556    1.0000 </r>
       <r>   -5.8541    1.0000 </r>
       <r>   -5.5818    1.0000 </r>
       <r>   -1.4900    1.0000 </r>
       <r>    0.0787    1.0000 </r>
       <r>    1.3615    1.0000 </r>
       <r>    5.1965    0.0000 </r>
       <r>    7.3220    0.0000 </r>
       <r>    7.7379    0.0000 </r>
       <r>    7.9393    0.0000 </r>
       <r>   10.1389    0.0000 </r>
       <r>   11.5680    0.0000 </r>
       <r>   13.1663    0.0000 </r>
       <r>   13.4241    0.0000 </r>
       <r>   14.0402    0.0000 </r>
       <r>   17.0646    0.0000 </r>
       <r>   17.1912    0.0000 </r>
       <r>   17.5060    0.0000 </r>
       <r>   18.3816    0.0000 </r>
       <r>   19.2306    0.0000 </r>
       <r>   19.9146    0.0000 </r>
      </set>
      <set comment="kpoint 31">
       <r>   -8.4027    1.0000 </r>
       <r>   -5.9409    1.0000 </r>
       <r>   -5.9377    1.0000 </r>
       <r>   -5.9377    1.0000 </r>
       <r>   -5.8200    1.0000 </r>
       <r>   -5.3817    1.0000 </r>
       <r>   -2.0628    1.0000 </r>
       <r>    0.3509    1.0000 </r>
       <r>    0.3509    1.0000 </r>
       <r>    4.7790    0.0000 </r>
       <r>    4.7872    0.0000 </r>
       <r>   10.8247    0.0000 </r>
       <r>   11.1053    0.0000 </r>
       <r>   11.1053    0.0000 </r>
       <r>   12.8801    0.0000 </r>
       <r>   13.5925    0.0000 </r>
       <r>   13.5925    0.0000 </r>
       <r>   14.0000    0.0000 </r>
       <r>   15.7751    0.0000 </r>
       <r>   17.4837    0.0000 </r>
       <r>   17.7266    0.0000 </r>
       <r>   17.7266    0.0000 </r>
       <r>   18.1324    0.0000 </r>
       <r>   18.1792    0.0000 </r>
      </set>
      <set comment="kpoint 32">
       <r>   -8.4027    1.0000 </r>
       <r>   -5.9409    1.0000 </r>
       <r>   -5.9377    1.0000 </r>
       <r>   -5.9377    1.0000 </r>
       <r>   -5.8200    1.0000 </r>
       <r>   -5.3817    1.0000 </r>
       <r>   -2.0628    1.0000 </r>
       <r>    0.3509    1.0000 </r>
       <r>    0.3509    1.0000 </r>
       <r>    4.7790    0.0000 </r>
       <r>    4.7872    0.0000 </r>
       <r>   10.8247    0.0000 </r>
       <r>   11.1053    0.0000 </r>
       <r>   11.1053    0.0000 </r>
       <r>   12.8801    0.0000 </r>
       <r>   13.5925    0.0000 </r>
       <r>   13.5925    0.0000 </r>
       <r>   14.0000    0.0000 </r>
       <r>   15.7751    0.0000 </r>
       <r>   17.4837    0.0000 </r>
       <r>   17.7266    0.0000 </r>
       <r>   17.7266    0.0000 </r>
       <r>   18.1324    0.0000 </r>
       <r>   18.1792    0.0000 </r>
      </set>
      <set comment="kpoint 33">
       <r>   -8.4027    1.0000 </r>
       <r>   -5.9409    1.0000 </r>
       <r>   -5.9377    1.0000 </r>
       <r>   -5.9377    1.0000 </r>
       <r>   -5.8200    1.0000 </r>
       <r>   -5.3817    1.0000 </r>
       <r>   -2.0628    1.0000 </r>
       <r>    0.3509    1.0000 </r>
       <r>    0.3509    1.0000 </r>
       <r>    4.7790    0.0000 </r>
       <r>    4.7872    0.0000 </r>
       <r>   10.8247    0.0000 </r>
       <r>   11.1053    0.0000 </r>
       <r>   11.1053    0.0000 </r>
       <r>   12.8801    0.0000 </r>
       <r>   13.5925    0.0000 </r>
       <r>   13.5925    0.0000 </r>
       <r>   14.0000    0.0000 </r>
       <r>   15.7751    0.0000 </r>
       <r>   17.4837    0.0000 </r>
       <r>   17.7266    0.0000 </r>
       <r>   17.7266    0.0000 </r>
       <r>   18.1324    0.0000 </r>
       <r>   18.1792    0.0000 </r>
      </set>
      <set comment="kpoint 34">
       <r>   -8.4043    1.0000 </r>
       <r>   -5.9751    1.0000 </r>
       <r>   -5.9688    1.0000 </r>
       <r>   -5.8750    1.0000 </r>
       <r>   -5.8476    1.0000 </r>
       <r>   -5.3085    1.0000 </r>
       <r>   -1.9421    1.0000 </r>
       <r>   -0.0942    1.0000 </r>
       <r>    0.0385    1.0000 </r>
       <r>    6.2751    0.0000 </r>
       <r>    6.8091    0.0000 </r>
       <r>    7.6411    0.0000 </r>
       <r>    8.4264    0.0000 </r>
       <r>   11.6251    0.0000 </r>
       <r>   13.1046    0.0000 </r>
       <r>   13.3303    0.0000 </r>
       <r>   13.4992    0.0000 </r>
       <r>   15.6756    0.0000 </r>
       <r>   16.8529    0.0000 </r>
       <r>   17.1439    0.0000 </r>
       <r>   17.2415    0.0000 </r>
       <r>   17.7530    0.0000 </r>
       <r>   18.6328    0.0000 </r>
       <r>   18.9849    0.0000 </r>
      </set>
      <set comment="kpoint 35">
       <r>   -8.4043    1.0000 </r>
       <r>   -5.9751    1.0000 </r>
       <r>   -5.9688    1.0000 </r>
       <r>   -5.8750    1.0000 </r>
       <r>   -5.8476    1.0000 </r>
       <r>   -5.3085    1.0000 </r>
       <r>   -1.9421    1.0000 </r>
       <r>   -0.0942    1.0000 </r>
       <r>    0.0385    1.0000 </r>
       <r>    6.2751    0.0000 </r>
       <r>    6.8091    0.0000 </r>
       <r>    7.6411    0.0000 </r>
       <r>    8.4264    0.0000 </r>
       <r>   11.6251    0.0000 </r>
       <r>   13.1046    0.0000 </r>
       <r>   13.3303    0.0000 </r>
       <r>   13.4992    0.0000 </r>
       <r>   15.6756    0.0000 </r>
       <r>   16.8529    0.0000 </r>
       <r>   17.1439    0.0000 </r>
       <r>   17.2415    0.0000 </r>
       <r>   17.7530    0.0000 </r>
       <r>   18.6328    0.0000 </r>
       <r>   18.9849    0.0000 </r>
      </set>
      <set comment="kpoint 36">
       <r>   -8.4043    1.0000 </r>
       <r>   -5.9751    1.0000 </r>
       <r>   -5.9688    1.0000 </r>
       <r>   -5.8750    1.0000 </r>
       <r>   -5.8476    1.0000 </r>
       <r>   -5.3085    1.0000 </r>
       <r>   -1.9421    1.0000 </r>
       <r>   -0.0942    1.0000 </r>
       <r>    0.0385    1.0000 </r>
       <r>    6.2751    0.0000 </r>
       <r>    6.8091    0.0000 </r>
       <r>    7.6411    0.0000 </r>
       <r>    8.4264    0.0000 </r>
       <r>   11.6251    0.0000 </r>
       <r>   13.1046    0.0000 </r>
       <r>   13.3303    0.0000 </r>
       <r>   13.4992    0.0000 </r>
       <r>   15.6756    0.0000 </r>
       <r>   16.8529    0.0000 </r>
       <r>   17.1439    0.0000 </r>
       <r>   17.2415    0.0000 </r>
       <r>   17.7530    0.0000 </r>
       <r>   18.6328    0.0000 </r>
       <r>   18.9849    0.0000 </r>
      </set>
     </set>
    </set>
   </array>
  </eigenvalues>
  <separator name="orbital magnetization" >
   <v name="MAGDIPOLOUT">      0.00000000      0.00000000      0.00000000</v>
  </separator>
  <electronvelocities>
   <kpoints>
    <varray name="kpointlist" >
     <v>       0.00000000       0.00000000       0.00000000 </v>
     <v>       0.25000000       0.00000000       0.00000000 </v>
     <v>       0.50000000       0.00000000       0.00000000 </v>
     <v>       0.75000000       0.00000000       0.00000000 </v>
     <v>       0.00000000       0.25000000       0.00000000 </v>
     <v>       0.25000000       0.25000000       0.00000000 </v>
     <v>       0.50000000       0.25000000       0.00000000 </v>
     <v>       0.75000000       0.25000000       0.00000000 </v>
     <v>       0.00000000       0.50000000       0.00000000 </v>
     <v>       0.25000000       0.50000000       0.00000000 </v>
     <v>       0.50000000       0.50000000       0.00000000 </v>
     <v>       0.75000000       0.50000000       0.00000000 </v>
     <v>       0.00000000       0.75000000       0.00000000 </v>
     <v>       0.25000000       0.75000000       0.00000000 </v>
     <v>       0.50000000       0.75000000       0.00000000 </v>
     <v>       0.75000000       0.75000000       0.00000000 </v>
     <v>       0.00000000       0.00000000       0.25000000 </v>
     <v>       0.25000000       0.00000000       0.25000000 </v>
     <v>       0.50000000       0.00000000       0.25000000 </v>
     <v>       0.75000000       0.00000000       0.25000000 </v>
     <v>       0.00000000       0.25000000       0.25000000 </v>
     <v>       0.25000000       0.25000000       0.25000000 </v>
     <v>       0.50000000       0.25000000       0.25000000 </v>
     <v>       0.75000000       0.25000000       0.25000000 </v>
     <v>       0.00000000       0.50000000       0.25000000 </v>
     <v>       0.25000000       0.50000000       0.25000000 </v>
     <v>       0.50000000       0.50000000       0.25000000 </v>
     <v>       0.75000000       0.50000000       0.25000000 </v>
     <v>       0.00000000       0.75000000       0.25000000 </v>
     <v>       0.25000000       0.75000000       0.25000000 </v>
     <v>       0.50000000       0.75000000       0.25000000 </v>
     <v>       0.75000000       0.75000000       0.25000000 </v>
     <v>       0.00000000       0.00000000       0.50000000 </v>
     <v>       0.25000000       0.00000000       0.50000000 </v>
     <v>       0.50000000       0.00000000       0.50000000 </v>
     <v>       0.75000000       0.00000000       0.50000000 </v>
     <v>       0.00000000       0.25000000       0.50000000 </v>
     <v>       0.25000000       0.25000000       0.50000000 </v>
     <v>       0.50000000       0.25000000       0.50000000 </v>
     <v>       0.75000000       0.25000000       0.50000000 </v>
     <v>       0.00000000       0.50000000       0.50000000 </v>
     <v>       0.25000000       0.50000000       0.50000000 </v>
     <v>       0.50000000       0.50000000       0.50000000 </v>
     <v>       0.75000000       0.50000000       0.50000000 </v>
     <v>       0.00000000       0.75000000       0.50000000 </v>
     <v>       0.25000000       0.75000000       0.50000000 </v>
     <v>       0.50000000       0.75000000       0.50000000 </v>
     <v>       0.75000000       0.75000000       0.50000000 </v>
     <v>       0.00000000       0.00000000       0.75000000 </v>
     <v>       0.25000000       0.00000000       0.75000000 </v>
     <v>       0.50000000       0.00000000       0.75000000 </v>
     <v>       0.75000000       0.00000000       0.75000000 </v>
     <v>       0.00000000       0.25000000       0.75000000 </v>
     <v>       0.25000000       0.25000000       0.75000000 </v>
     <v>       0.50000000       0.25000000       0.75000000 </v>
     <v>       0.75000000       0.25000000       0.75000000 </v>
     <v>       0.00000000       0.50000000       0.75000000 </v>
     <v>       0.25000000       0.50000000       0.75000000 </v>
     <v>       0.50000000       0.50000000       0.75000000 </v>
     <v>       0.75000000       0.50000000       0.75000000 </v>
     <v>       0.00000000       0.75000000       0.75000000 </v>
     <v>       0.25000000       0.75000000       0.75000000 </v>
     <v>       0.50000000       0.75000000       0.75000000 </v>
     <v>       0.75000000       0.75000000       0.75000000 </v>
    </varray>
    <varray name="weights" >
     <v>       0.01562500 </v>
     <v>       0.01562500 </v>
     <v>       0.01562500 </v>
     <v>       0.01562500 </v>
     <v>       0.01562500 </v>
     <v>       0.01562500 </v>
     <v>       0.01562500 </v>
     <v>       0.01562500 </v>
     <v>       0.01562500 </v>
     <v>       0.01562500 </v>
     <v>       0.01562500 </v>
     <v>       0.01562500 </v>
     <v>       0.01562500 </v>
     <v>       0.01562500 </v>
     <v>       0.01562500 </v>
     <v>       0.01562500 </v>
     <v>       0.01562500 </v>
     <v>       0.01562500 </v>
     <v>       0.01562500 </v>
     <v>       0.01562500 </v>
     <v>       0.01562500 </v>
     <v>       0.01562500 </v>
     <v>       0.01562500 </v>
     <v>       0.01562500 </v>
     <v>       0.01562500 </v>
     <v>       0.01562500 </v>
     <v>       0.01562500 </v>
     <v>       0.01562500 </v>
     <v>       0.01562500 </v>
     <v>       0.01562500 </v>
     <v>       0.01562500 </v>
     <v>       0.01562500 </v>
     <v>       0.01562500 </v>
     <v>       0.01562500 </v>
     <v>       0.01562500 </v>
     <v>       0.01562500 </v>
     <v>       0.01562500 </v>
     <v>       0.01562500 </v>
     <v>       0.01562500 </v>
     <v>       0.01562500 </v>
     <v>       0.01562500 </v>
     <v>       0.01562500 </v>
     <v>       0.01562500 </v>
     <v>       0.01562500 </v>
     <v>       0.01562500 </v>
     <v>       0.01562500 </v>
     <v>       0.01562500 </v>
     <v>       0.01562500 </v>
     <v>       0.01562500 </v>
     <v>       0.01562500 </v>
     <v>       0.01562500 </v>
     <v>       0.01562500 </v>
     <v>       0.01562500 </v>
     <v>       0.01562500 </v>
     <v>       0.01562500 </v>
     <v>       0.01562500 </v>
     <v>       0.01562500 </v>
     <v>       0.01562500 </v>
     <v>       0.01562500 </v>
     <v>       0.01562500 </v>
     <v>       0.01562500 </v>
     <v>       0.01562500 </v>
     <v>       0.01562500 </v>
     <v>       0.01562500 </v>
    </varray>
   </kpoints>
   <eigenvalues>
    <array>
     <dimension dim="1">band</dimension>
     <dimension dim="2">kpoint</dimension>
     <dimension dim="3">spin</dimension>
     <field>eigene</field>
     <field>data</field>
     <field>data</field>
     <field>data</field>
     <set>
      <set comment="spin 1">
       <set comment="kpoint 1">
        <r>   -8.8871   -0.0000    0.0000    0.0000 </r>
        <r>   -6.0875    0.0000   -0.0000   -0.0000 </r>
        <r>   -6.0875   -0.0000   -0.0000   -0.0000 </r>
        <r>   -6.0875    0.0000   -0.0000    0.0000 </r>
        <r>   -5.8481   -0.0000    0.0000    0.0000 </r>
        <r>   -5.8481   -0.0000   -0.0000    0.0000 </r>
        <r>    2.1291   -0.0000    0.0000    0.0000 </r>
        <r>    2.1291   -0.0000   -0.0000   -0.0000 </r>
        <r>    2.1291   -0.0000   -0.0000    0.0000 </r>
        <r>    2.7993    0.0000   -0.0000   -0.0000 </r>
        <r>    6.7276   -0.0000    0.0000   -0.0000 </r>
        <r>    6.7276    0.0000   -0.0000    0.0000 </r>
        <r>    6.7277   -0.0000    0.0000    0.0000 </r>
        <r>    9.5446   -0.0000    0.0000    0.0000 </r>
        <r>   11.4245    0.0000    0.0000    0.0000 </r>
        <r>   11.4245   -0.0000   -0.0000    0.0000 </r>
        <r>   12.2085   -0.0000   -0.0000   -0.0000 </r>
        <r>   12.2085   -0.0000    0.0000   -0.0000 </r>
        <r>   12.2085    0.0000   -0.0000    0.0000 </r>
        <r>   14.5999   -0.0000   -0.0000   -0.0000 </r>
        <r>   21.6855   -0.0008    0.0008    0.0001 </r>
        <r>   21.6855   -0.0002    0.0000   -0.0008 </r>
        <r>   21.6855   -0.0001   -0.0007   -0.0020 </r>
        <r>   22.5866   -0.0000   -0.0003   -0.0003 </r>
       </set>
       <set comment="kpoint 2">
        <r>   -8.6997   -0.4076    0.4076    0.4076 </r>
        <r>   -6.0543   -0.0363    0.0769    0.0812 </r>
        <r>   -6.0543   -0.0933    0.0527    0.0484 </r>
        <r>   -5.8961   -0.5628    0.5628    0.5628 </r>
        <r>   -5.8485    0.0296    0.0258    0.0270 </r>
        <r>   -5.8485   -0.0451   -0.0103   -0.0115 </r>
        <r>   -0.5360    3.7565   -3.7565   -3.7565 </r>
        <r>    1.7218    1.4632    0.1155   -1.0187 </r>
        <r>    1.7218    0.1144   -1.6931   -0.5589 </r>
        <r>    4.0552   -0.0414    0.0414    0.0414 </r>
        <r>    7.2616   -1.7950    0.0445   -0.0010 </r>
        <r>    7.2616    0.5694    1.1813    1.2267 </r>
        <r>    7.4381   -3.3263    3.3262    3.3262 </r>
        <r>   10.4156    1.1659   -1.1658   -1.1658 </r>
        <r>   10.5450    2.0422    0.7776    3.7332 </r>
        <r>   10.5450   -3.6880    0.8681   -2.0875 </r>
        <r>   12.9042   -5.6975    5.6975    5.6975 </r>
        <r>   15.1748   -1.6495    7.7011    6.2954 </r>
        <r>   15.1748   -8.7812    2.7296    4.1353 </r>
        <r>   17.5032    9.9744   -3.5043   -5.3075 </r>
        <r>   17.5032    2.5476   -9.0211   -7.2175 </r>
        <r>   17.5052    0.2009   -0.1976   -0.1979 </r>
        <r>   17.9973    0.2926   -0.2926   -0.2926 </r>
        <r>   22.0245   -0.8188    0.8193    0.8188 </r>
       </set>
       <set comment="kpoint 3">
        <r>   -8.5157   -0.0000    0.0000    0.0000 </r>
        <r>   -6.0292    0.0000   -0.0000   -0.0000 </r>
        <r>   -6.0292   -0.0000    0.0000    0.0000 </r>
        <r>   -5.8403    0.0000    0.0000   -0.0000 </r>
        <r>   -5.8403    0.0000   -0.0000    0.0000 </r>
        <r>   -5.5142    0.0000   -0.0000    0.0000 </r>
        <r>   -2.1550   -0.0000    0.0000   -0.0000 </r>
        <r>    1.3910    0.0000    0.0000    0.0000 </r>
        <r>    1.3910    0.0000   -0.0000    0.0000 </r>
        <r>    3.9028   -0.0000    0.0000   -0.0000 </r>
        <r>    7.3085   -0.0000   -0.0000   -0.0000 </r>
        <r>    7.3085   -0.0000    0.0000   -0.0000 </r>
        <r>    9.1778   -0.0000    0.0000   -0.0000 </r>
        <r>   10.6791    0.0000   -0.0000    0.0000 </r>
        <r>   12.3582   -0.0000   -0.0000   -0.0000 </r>
        <r>   12.3582    0.0000    0.0000    0.0000 </r>
        <r>   13.3227   -0.0000    0.0000   -0.0000 </r>
        <r>   13.6617   -0.0000    0.0000   -0.0000 </r>
        <r>   13.6617    0.0000   -0.0000    0.0000 </r>
        <r>   17.9233   -0.0000    0.0000   -0.0000 </r>
        <r>   19.4102   -0.0001    0.0002   -0.0002 </r>
        <r>   19.4102    0.0001   -0.0001    0.0002 </r>
        <r>   20.0880   -0.0016    0.0018   -0.0034 </r>
        <r>   20.4184   -0.0000    0.0000   -0.0000 </r>
       </set>
       <set comment="kpoint 4">
        <r>   -8.6997   -0.4076    0.4076    0.4076 </r>
        <r>   -6.0543   -0.0363    0.0769    0.0812 </r>
        <r>   -6.0543   -0.0933    0.0527    0.0484 </r>
        <r>   -5.8961   -0.5628    0.5628    0.5628 </r>
        <r>   -5.8485    0.0296    0.0258    0.0270 </r>
        <r>   -5.8485   -0.0451   -0.0103   -0.0115 </r>
        <r>   -0.5360    3.7565   -3.7565   -3.7565 </r>
        <r>    1.7218    1.4632    0.1155   -1.0187 </r>
        <r>    1.7218    0.1144   -1.6931   -0.5589 </r>
        <r>    4.0552   -0.0414    0.0414    0.0414 </r>
        <r>    7.2616   -1.7950    0.0445   -0.0010 </r>
        <r>    7.2616    0.5694    1.1813    1.2267 </r>
        <r>    7.4381   -3.3263    3.3262    3.3262 </r>
        <r>   10.4156    1.1659   -1.1658   -1.1658 </r>
        <r>   10.5450    2.0422    0.7776    3.7332 </r>
        <r>   10.5450   -3.6880    0.8681   -2.0875 </r>
        <r>   12.9042   -5.6975    5.6975    5.6975 </r>
        <r>   15.1748   -1.6495    7.7011    6.2954 </r>
        <r>   15.1748   -8.7812    2.7296    4.1353 </r>
        <r>   17.5032    9.9744   -3.5043   -5.3075 </r>
        <r>   17.5032    2.5476   -9.0211   -7.2175 </r>
        <r>   17.5052    0.2009   -0.1976   -0.1979 </r>
        <r>   17.9973    0.2926   -0.2926   -0.2926 </r>
        <r>   22.0245   -0.8188    0.8193    0.8188 </r>
       </set>
       <set comment="kpoint 5">
        <r>   -8.6997    0.4076   -0.4076    0.4076 </r>
        <r>   -6.0543    0.0783   -0.0362    0.0799 </r>
        <r>   -6.0543    0.0513   -0.0934    0.0497 </r>
        <r>   -5.8961    0.5628   -0.5628    0.5628 </r>
        <r>   -5.8485    0.0226    0.0293    0.0300 </r>
        <r>   -5.8485   -0.0071   -0.0449   -0.0145 </r>
        <r>   -0.5360   -3.7565    3.7565   -3.7565 </r>
        <r>    1.7218   -0.4972    0.1607   -1.7085 </r>
        <r>    1.7218   -1.0804    1.4169    0.1309 </r>
        <r>    4.0552    0.0414   -0.0414    0.0414 </r>
        <r>    7.2616    0.0805   -1.7935   -0.0354 </r>
        <r>    7.2616    1.1452    0.5678    1.2611 </r>
        <r>    7.4381    3.3262   -3.3263    3.3262 </r>
        <r>   10.4156   -1.1658    1.1659   -1.1658 </r>
        <r>   10.5450    1.6841    2.4223    3.2069 </r>
        <r>   10.5450   -0.0384   -4.0682   -1.5611 </r>
        <r>   12.9042    5.6975   -5.6975    5.6975 </r>
        <r>   15.1748    7.2021   -1.5588    6.8851 </r>
        <r>   15.1748    3.2285   -8.8719    3.5456 </r>
        <r>   17.5032   -2.6123    9.2074   -6.9665 </r>
        <r>   17.5032   -9.9125    3.3153   -5.5584 </r>
        <r>   17.5052   -0.1981    0.2003   -0.1980 </r>
        <r>   17.9973   -0.2926    0.2926   -0.2926 </r>
        <r>   22.0245    0.8189   -0.8188    0.8192 </r>
       </set>
       <set comment="kpoint 6">
        <r>   -8.6390   -0.0000   -0.0000    0.8010 </r>
        <r>   -6.0164    0.0000    0.0000    0.2445 </r>
        <r>   -6.0164    0.0000    0.0000    0.2445 </r>
        <r>   -5.9341   -0.0000   -0.0000    0.2300 </r>
        <r>   -5.8339   -0.0000   -0.0000    0.0463 </r>
        <r>   -5.8160   -0.0000   -0.0000    0.6462 </r>
        <r>   -0.4984   -0.0000   -0.0000   -5.3022 </r>
        <r>    1.0954    0.0000    0.0000   -2.7569 </r>
        <r>    1.0954    0.0000    0.0000   -2.7570 </r>
        <r>    5.0105    0.0000    0.0000    0.4495 </r>
        <r>    5.4698   -0.0000   -0.0000   -1.3282 </r>
        <r>    8.5359    0.0000    0.0000    6.0275 </r>
        <r>    8.5359    0.0000    0.0000    6.0275 </r>
        <r>    8.9165   -0.0000   -0.0000    0.3968 </r>
        <r>   11.9528   -0.0000   -0.0000    2.1082 </r>
        <r>   12.6596   -0.0000   -0.0000    9.0645 </r>
        <r>   13.8561    0.0000   -0.0000    6.7079 </r>
        <r>   13.8561    0.0000    0.0000    6.7079 </r>
        <r>   14.2680   -0.0000   -0.0000    5.3446 </r>
        <r>   17.2018   -0.0000   -0.0000  -10.3249 </r>
        <r>   17.2018   -0.0000   -0.0000  -10.3249 </r>
        <r>   18.1092    0.0000    0.0000   -7.8353 </r>
        <r>   18.4158    0.0000    0.0000   -8.4296 </r>
        <r>   19.6265   -0.0000   -0.0000   13.5109 </r>
       </set>
       <set comment="kpoint 7">
        <r>   -8.4599   -0.0015    0.0015    0.3725 </r>
        <r>   -5.9980    0.0685   -0.0685    0.1236 </r>
        <r>   -5.9816    0.0752   -0.0752    0.1552 </r>
        <r>   -5.8847   -0.1212    0.1212   -0.0475 </r>
        <r>   -5.8335    0.0320   -0.0320   -0.0049 </r>
        <r>   -5.4606   -0.2374    0.2374    0.8861 </r>
        <r>   -1.8369    0.9779   -0.9779   -1.1925 </r>
        <r>    0.1405    0.1243   -0.1243   -3.4161 </r>
        <r>    0.8165   -1.0177    1.0176   -1.2932 </r>
        <r>    5.0716   -0.1196    0.1196    0.0654 </r>
        <r>    6.5919   -3.4303    3.4303    0.1532 </r>
        <r>    8.2793   -0.0785    0.0785    3.3928 </r>
        <r>    8.8188    3.3645   -3.3645    4.1682 </r>
        <r>   11.0381    1.6036   -1.6036   -2.2513 </r>
        <r>   12.5603    2.9699   -2.9699   -4.1130 </r>
        <r>   13.0921    4.1948   -4.1948    7.1814 </r>
        <r>   13.4000   -0.7354    0.7354    3.5822 </r>
        <r>   14.1297   -1.4758    1.4757    4.5688 </r>
        <r>   16.8772   -4.1235    4.1235    5.2180 </r>
        <r>   17.1546   -5.6131    5.6131    4.9693 </r>
        <r>   17.5472    2.8640   -2.8640   -3.9449 </r>
        <r>   18.5543    1.0434   -1.0434   -5.7771 </r>
        <r>   18.5987   -5.2229    5.2229   -6.8194 </r>
        <r>   19.4269   -4.0095    4.0095    4.1069 </r>
       </set>
       <set comment="kpoint 8">
        <r>   -8.5181    0.3841   -0.3841    0.0000 </r>
        <r>   -6.0143    0.1212   -0.1212   -0.0000 </r>
        <r>   -6.0120    0.0601   -0.0601   -0.0000 </r>
        <r>   -5.8556    0.0217   -0.0217    0.0000 </r>
        <r>   -5.8541   -0.0150    0.0150    0.0000 </r>
        <r>   -5.5818    0.8721   -0.8721    0.0000 </r>
        <r>   -1.4900   -2.1113    2.1113   -0.0000 </r>
        <r>    0.0787   -2.2511    2.2511    0.0000 </r>
        <r>    1.3615   -1.5399    1.5399   -0.0000 </r>
        <r>    5.1965    0.7583   -0.7583    0.0000 </r>
        <r>    7.3220   -0.4099    0.4099   -0.0000 </r>
        <r>    7.7379    3.4928   -3.4928    0.0000 </r>
        <r>    7.9393    2.5191   -2.5191    0.0000 </r>
        <r>   10.1389    2.0887   -2.0887   -0.0000 </r>
        <r>   11.5680   -5.7318    5.7318    0.0000 </r>
        <r>   13.1663    4.1008   -4.1008   -0.0000 </r>
        <r>   13.4241    2.9297   -2.9297    0.0000 </r>
        <r>   14.0402    4.0821   -4.0821    0.0000 </r>
        <r>   17.0646    8.8992   -8.8992   -0.0000 </r>
        <r>   17.1912   -4.5866    4.5866    0.0000 </r>
        <r>   17.5060   -3.7934    3.7934   -0.0000 </r>
        <r>   18.3816   -1.6855    1.6855    0.0000 </r>
        <r>   19.2306    6.0950   -6.0950    0.0000 </r>
        <r>   19.9146   -2.4083    2.4083    0.0000 </r>
       </set>
       <set comment="kpoint 9">
        <r>   -8.5157   -0.0000    0.0000   -0.0000 </r>
        <r>   -6.0292   -0.0000    0.0000   -0.0000 </r>
        <r>   -6.0292   -0.0000   -0.0000    0.0000 </r>
        <r>   -5.8403    0.0000    0.0000   -0.0000 </r>
        <r>   -5.8403   -0.0000    0.0000    0.0000 </r>
        <r>   -5.5142   -0.0000   -0.0000    0.0000 </r>
        <r>   -2.1550   -0.0000    0.0000   -0.0000 </r>
        <r>    1.3910    0.0000   -0.0000    0.0000 </r>
        <r>    1.3910   -0.0000    0.0000   -0.0000 </r>
        <r>    3.9028    0.0000    0.0000   -0.0000 </r>
        <r>    7.3085   -0.0000   -0.0000    0.0000 </r>
        <r>    7.3085   -0.0000   -0.0000    0.0000 </r>
        <r>    9.1778    0.0000    0.0000   -0.0000 </r>
        <r>   10.6791   -0.0000   -0.0000    0.0000 </r>
        <r>   12.3582   -0.0000   -0.0000   -0.0000 </r>
        <r>   12.3582    0.0000    0.0000    0.0000 </r>
        <r>   13.3227    0.0000    0.0000   -0.0000 </r>
        <r>   13.6617   -0.0000    0.0000    0.0000 </r>
        <r>   13.6617    0.0000   -0.0000   -0.0000 </r>
        <r>   17.9233    0.0000   -0.0000   -0.0000 </r>
        <r>   19.4102    0.0001   -0.0000   -0.0001 </r>
        <r>   19.4102   -0.0001    0.0000    0.0001 </r>
        <r>   20.0880    0.0021    0.0002   -0.0019 </r>
        <r>   20.4184    0.0000    0.0000   -0.0000 </r>
       </set>
       <set comment="kpoint 10">
        <r>   -8.4599    0.0015   -0.0015    0.3725 </r>
        <r>   -5.9980   -0.0685    0.0685    0.1236 </r>
        <r>   -5.9816   -0.0752    0.0752    0.1552 </r>
        <r>   -5.8847    0.1212   -0.1212   -0.0475 </r>
        <r>   -5.8335   -0.0320    0.0320   -0.0049 </r>
        <r>   -5.4606    0.2374   -0.2374    0.8861 </r>
        <r>   -1.8369   -0.9779    0.9779   -1.1925 </r>
        <r>    0.1405   -0.1243    0.1243   -3.4161 </r>
        <r>    0.8165    1.0177   -1.0177   -1.2932 </r>
        <r>    5.0716    0.1196   -0.1196    0.0654 </r>
        <r>    6.5919    3.4303   -3.4303    0.1532 </r>
        <r>    8.2793    0.0785   -0.0786    3.3928 </r>
        <r>    8.8188   -3.3645    3.3645    4.1682 </r>
        <r>   11.0381   -1.6036    1.6036   -2.2513 </r>
        <r>   12.5603   -2.9699    2.9699   -4.1130 </r>
        <r>   13.0921   -4.1948    4.1948    7.1814 </r>
        <r>   13.4000    0.7354   -0.7354    3.5822 </r>
        <r>   14.1297    1.4757   -1.4758    4.5688 </r>
[...]
       </set>
       <set comment="band 12">
        <r>  0.0743  0.0000  0.0000  0.0000  0.0000  0.0000  0.0017  0.0000  0.0051 </r>
        <r>  0.0000  0.3357  0.0000  0.0000  0.0000  0.0000  0.0000  0.0174  0.0000 </r>
       </set>
       <set comment="band 13">
        <r>  0.0000  0.0000  0.1103  0.1062  0.0062  0.0060  0.0000  0.0000  0.0000 </r>
        <r>  0.0000  0.0000  0.0996  0.1035  0.0226  0.0235  0.0000  0.0000  0.0000 </r>
       </set>
       <set comment="band 14">
        <r>  0.0000  0.0000  0.1062  0.1103  0.0060  0.0062  0.0000  0.0000  0.0000 </r>
        <r>  0.0000  0.0000  0.1035  0.0996  0.0235  0.0226  0.0000  0.0000  0.0000 </r>
       </set>
       <set comment="band 15">
        <r>  0.0000  0.0000  0.0000  0.0000  0.0000  0.0000  0.0000  0.0000  0.0000 </r>
        <r>  0.0000  0.0000  0.0000  0.0000  0.0000  0.0000  0.2588  0.0000  0.0863 </r>
       </set>
       <set comment="band 16">
        <r>  0.0000  0.0000  0.0162  0.0079  0.0410  0.0199  0.0000  0.0000  0.0000 </r>
        <r>  0.0000  0.0000  0.0101  0.0208  0.0924  0.1899  0.0000  0.0000  0.0000 </r>
       </set>
       <set comment="band 17">
        <r>  0.0000  0.0000  0.0079  0.0162  0.0199  0.0410  0.0000  0.0000  0.0000 </r>
        <r>  0.0000  0.0000  0.0208  0.0101  0.1899  0.0924  0.0000  0.0000  0.0000 </r>
       </set>
       <set comment="band 18">
        <r>  0.0000  0.2097  0.0000  0.0000  0.0000  0.0000  0.0000  0.0353  0.0000 </r>
        <r>  0.1093  0.0000  0.0000  0.0000  0.0000  0.0000  0.0043  0.0000  0.0128 </r>
       </set>
       <set comment="band 19">
        <r>  0.0000  0.0000  0.0000  0.0000  0.0000  0.0000  0.1351  0.0000  0.0450 </r>
        <r>  0.0000  0.0000  0.0000  0.0000  0.0000  0.0000  0.0000  0.0000  0.0000 </r>
       </set>
       <set comment="band 20">
        <r>  0.0000  0.0025  0.0000  0.0000  0.0000  0.0000  0.0000  0.0070  0.0000 </r>
        <r>  0.0169  0.0000  0.0000  0.0000  0.0000  0.0000  0.1062  0.0000  0.3186 </r>
       </set>
       <set comment="band 21">
        <r>  0.0000  0.0000  0.0237  0.0194  0.0045  0.0037  0.0000  0.0000  0.0000 </r>
        <r>  0.0000  0.0000  0.0002  0.0002  0.0158  0.0194  0.0000  0.0000  0.0000 </r>
       </set>
       <set comment="band 22">
        <r>  0.0000  0.0000  0.0194  0.0237  0.0037  0.0045  0.0000  0.0000  0.0000 </r>
        <r>  0.0000  0.0000  0.0002  0.0002  0.0194  0.0158  0.0000  0.0000  0.0000 </r>
       </set>
       <set comment="band 23">
        <r>  0.0334  0.0000  0.0000  0.0000  0.0000  0.0000  0.0051  0.0000  0.0153 </r>
        <r>  0.0000  0.0177  0.0000  0.0000  0.0000  0.0000  0.0000  0.0038  0.0000 </r>
       </set>
       <set comment="band 24">
        <r>  0.0000  0.1432  0.0000  0.0000  0.0000  0.0000  0.0000  0.0007  0.0000 </r>
        <r>  0.0163  0.0000  0.0000  0.0000  0.0000  0.0000  0.0010  0.0000  0.0029 </r>
       </set>
      </set>
      <set comment="kpoint 34">
       <set comment="band 1">
        <r>  0.0000  0.0000  0.0063  0.0063  0.0709  0.0709  0.0000  0.0000  0.0000 </r>
        <r>  0.5725  0.0000  0.0000  0.0000  0.0000  0.0000  0.0000  0.0000  0.0000 </r>
       </set>
       <set comment="band 2">
        <r>  0.0000  0.0000  0.0001  0.0001  0.4652  0.4652  0.0000  0.0000  0.0000 </r>
        <r>  0.0000  0.0073  0.0000  0.0000  0.0000  0.0000  0.0002  0.0013  0.0001 </r>
       </set>
       <set comment="band 3">
        <r>  0.0000  0.0006  0.0000  0.0000  0.0000  0.0000  0.2224  0.6246  0.0741 </r>
        <r>  0.0000  0.0000  0.0062  0.0062  0.0002  0.0002  0.0000  0.0000  0.0000 </r>
       </set>
       <set comment="band 4">
        <r>  0.0000  0.0000  0.0000  0.0000  0.0000  0.0000  0.4740  0.3101  0.1580 </r>
        <r>  0.0000  0.0000  0.0000  0.0000  0.0006  0.0006  0.0000  0.0000  0.0000 </r>
       </set>
       <set comment="band 5">
        <r>  0.0003  0.0000  0.0000  0.0000  0.0000  0.0000  0.2357  0.0000  0.7070 </r>
        <r>  0.0000  0.0000  0.0008  0.0008  0.0000  0.0000  0.0000  0.0000  0.0000 </r>
       </set>
       <set comment="band 6">
        <r>  0.0000  0.0000  0.0020  0.0020  0.4077  0.4077  0.0000  0.0000  0.0000 </r>
        <r>  0.1110  0.0000  0.0000  0.0000  0.0000  0.0000  0.0000  0.0000  0.0001 </r>
       </set>
       <set comment="band 7">
        <r>  0.2636  0.0000  0.0000  0.0000  0.0000  0.0000  0.0013  0.0000  0.0040 </r>
        <r>  0.0000  0.0000  0.1086  0.1086  0.0023  0.0023  0.0000  0.0000  0.0000 </r>
       </set>
       <set comment="band 8">
        <r>  0.0000  0.0637  0.0000  0.0000  0.0000  0.0000  0.0190  0.0150  0.0063 </r>
        <r>  0.0000  0.0000  0.1663  0.1663  0.0000  0.0000  0.0000  0.0000  0.0000 </r>
       </set>
       <set comment="band 9">
        <r>  0.0000  0.0000  0.0413  0.0413  0.0035  0.0035  0.0000  0.0000  0.0000 </r>
        <r>  0.0000  0.3307  0.0000  0.0000  0.0000  0.0000  0.0018  0.0003  0.0006 </r>
       </set>
       <set comment="band 10">
        <r>  0.2501  0.0000  0.0000  0.0000  0.0000  0.0000  0.0026  0.0000  0.0078 </r>
        <r>  0.0000  0.0000  0.1415  0.1415  0.0212  0.0212  0.0000  0.0000  0.0000 </r>
       </set>
       <set comment="band 11">
        <r>  0.0000  0.0000  0.0145  0.0145  0.0247  0.0247  0.0000  0.0000  0.0000 </r>
        <r>  0.0000  0.1629  0.0000  0.0000  0.0000  0.0000  0.0344  0.0013  0.0115 </r>
       </set>
       <set comment="band 12">
        <r>  0.0000  0.0000  0.0939  0.0939  0.0061  0.0061  0.0000  0.0000  0.0000 </r>
        <r>  0.0781  0.0000  0.0000  0.0000  0.0000  0.0000  0.0090  0.0000  0.0269 </r>
       </set>
       <set comment="band 13">
        <r>  0.0000  0.0942  0.0000  0.0000  0.0000  0.0000  0.0221  0.0062  0.0074 </r>
        <r>  0.0000  0.0000  0.0087  0.0087  0.0503  0.0503  0.0000  0.0000  0.0000 </r>
       </set>
       <set comment="band 14">
        <r>  0.0000  0.1484  0.0000  0.0000  0.0000  0.0000  0.0013  0.0332  0.0004 </r>
        <r>  0.0000  0.0000  0.1374  0.1374  0.0000  0.0000  0.0000  0.0000  0.0000 </r>
       </set>
       <set comment="band 15">
        <r>  0.0000  0.0000  0.0781  0.0781  0.0219  0.0219  0.0000  0.0000  0.0000 </r>
        <r>  0.0000  0.0078  0.0000  0.0000  0.0000  0.0000  0.0001  0.3106  0.0000 </r>
       </set>
       <set comment="band 16">
        <r>  0.0057  0.0000  0.0000  0.0000  0.0000  0.0000  0.0149  0.0000  0.0448 </r>
        <r>  0.0000  0.0000  0.0684  0.0684  0.0228  0.0228  0.0000  0.0000  0.0000 </r>
       </set>
       <set comment="band 17">
        <r>  0.0000  0.0000  0.0438  0.0438  0.0046  0.0046  0.0000  0.0000  0.0000 </r>
        <r>  0.0432  0.0000  0.0000  0.0000  0.0000  0.0000  0.0607  0.0000  0.1822 </r>
       </set>
       <set comment="band 18">
        <r>  0.0000  0.0000  0.0099  0.0099  0.0000  0.0000  0.0000  0.0000  0.0000 </r>
        <r>  0.0000  0.0012  0.0000  0.0000  0.0000  0.0000  0.1344  0.0359  0.0448 </r>
       </set>
       <set comment="band 19">
        <r>  0.0000  0.0000  0.0640  0.0640  0.0015  0.0015  0.0000  0.0000  0.0000 </r>
        <r>  0.0098  0.0000  0.0000  0.0000  0.0000  0.0000  0.0024  0.0000  0.0073 </r>
       </set>
       <set comment="band 20">
        <r>  0.0713  0.0000  0.0000  0.0000  0.0000  0.0000  0.0063  0.0000  0.0190 </r>
        <r>  0.0000  0.0000  0.0006  0.0006  0.0300  0.0300  0.0000  0.0000  0.0000 </r>
       </set>
       <set comment="band 21">
        <r>  0.0000  0.0044  0.0000  0.0000  0.0000  0.0000  0.0282  0.0884  0.0094 </r>
        <r>  0.0000  0.0000  0.0000  0.0000  0.0287  0.0287  0.0000  0.0000  0.0000 </r>
       </set>
       <set comment="band 22">
        <r>  0.0000  0.0000  0.0548  0.0548  0.0000  0.0000  0.0000  0.0000  0.0000 </r>
        <r>  0.0000  0.1790  0.0000  0.0000  0.0000  0.0000  0.1435  0.0417  0.0478 </r>
       </set>
       <set comment="band 23">
        <r>  0.0147  0.0000  0.0000  0.0000  0.0000  0.0000  0.0103  0.0000  0.0310 </r>
        <r>  0.0000  0.0000  0.0128  0.0128  0.2065  0.2065  0.0000  0.0000  0.0000 </r>
       </set>
       <set comment="band 24">
        <r>  0.0000  0.0100  0.0000  0.0000  0.0000  0.0000  0.0246  0.0536  0.0082 </r>
        <r>  0.0000  0.0000  0.0241  0.0241  0.1562  0.1562  0.0000  0.0000  0.0000 </r>
       </set>
      </set>
      <set comment="kpoint 35">
       <set comment="band 1">
        <r>  0.0000  0.0063  0.0000  0.0063  0.0000  0.0709  0.0000  0.0709  0.0000 </r>
        <r>  0.5725  0.0000  0.0000  0.0000  0.0000  0.0000  0.0000  0.0000  0.0000 </r>
       </set>
       <set comment="band 2">
        <r>  0.0000  0.0001  0.0000  0.0001  0.0000  0.4652  0.0000  0.4652  0.0000 </r>
        <r>  0.0000  0.0000  0.0073  0.0000  0.0013  0.0000  0.0000  0.0000  0.0003 </r>
       </set>
       <set comment="band 3">
        <r>  0.0000  0.0000  0.0006  0.0000  0.6246  0.0000  0.0000  0.0000  0.2965 </r>
        <r>  0.0000  0.0062  0.0000  0.0062  0.0000  0.0002  0.0000  0.0002  0.0000 </r>
       </set>
       <set comment="band 4">
        <r>  0.0000  0.0000  0.0000  0.0000  0.3101  0.0000  0.0000  0.0000  0.6320 </r>
        <r>  0.0000  0.0000  0.0000  0.0000  0.0000  0.0006  0.0000  0.0006  0.0000 </r>
       </set>
       <set comment="band 5">
        <r>  0.0003  0.0000  0.0000  0.0000  0.0000  0.0000  0.9427  0.0000  0.0000 </r>
        <r>  0.0000  0.0008  0.0000  0.0008  0.0000  0.0000  0.0000  0.0000  0.0000 </r>
       </set>
       <set comment="band 6">
        <r>  0.0000  0.0020  0.0000  0.0020  0.0000  0.4077  0.0000  0.4077  0.0000 </r>
        <r>  0.1110  0.0000  0.0000  0.0000  0.0000  0.0000  0.0001  0.0000  0.0000 </r>
       </set>
       <set comment="band 7">
        <r>  0.2636  0.0000  0.0000  0.0000  0.0000  0.0000  0.0054  0.0000  0.0000 </r>
        <r>  0.0000  0.1086  0.0000  0.1086  0.0000  0.0023  0.0000  0.0023  0.0000 </r>
       </set>
       <set comment="band 8">
        <r>  0.0000  0.0000  0.0637  0.0000  0.0150  0.0000  0.0000  0.0000  0.0253 </r>
        <r>  0.0000  0.1663  0.0000  0.1663  0.0000  0.0000  0.0000  0.0000  0.0000 </r>
       </set>
       <set comment="band 9">
        <r>  0.0000  0.0413  0.0000  0.0413  0.0000  0.0035  0.0000  0.0035  0.0000 </r>
        <r>  0.0000  0.0000  0.3307  0.0000  0.0003  0.0000  0.0000  0.0000  0.0024 </r>
       </set>
       <set comment="band 10">
        <r>  0.2501  0.0000  0.0000  0.0000  0.0000  0.0000  0.0103  0.0000  0.0000 </r>
        <r>  0.0000  0.1415  0.0000  0.1415  0.0000  0.0212  0.0000  0.0212  0.0000 </r>
       </set>
       <set comment="band 11">
        <r>  0.0000  0.0145  0.0000  0.0145  0.0000  0.0247  0.0000  0.0247  0.0000 </r>
        <r>  0.0000  0.0000  0.1629  0.0000  0.0013  0.0000  0.0000  0.0000  0.0458 </r>
       </set>
       <set comment="band 12">
        <r>  0.0000  0.0939  0.0000  0.0939  0.0000  0.0061  0.0000  0.0061  0.0000 </r>
        <r>  0.0781  0.0000  0.0000  0.0000  0.0000  0.0000  0.0359  0.0000  0.0000 </r>
       </set>
       <set comment="band 13">
        <r>  0.0000  0.0000  0.0942  0.0000  0.0062  0.0000  0.0000  0.0000  0.0295 </r>
        <r>  0.0000  0.0087  0.0000  0.0087  0.0000  0.0503  0.0000  0.0503  0.0000 </r>
       </set>
       <set comment="band 14">
        <r>  0.0000  0.0000  0.1484  0.0000  0.0332  0.0000  0.0000  0.0000  0.0018 </r>
        <r>  0.0000  0.1374  0.0000  0.1374  0.0000  0.0000  0.0000  0.0000  0.0000 </r>
       </set>
       <set comment="band 15">
        <r>  0.0000  0.0781  0.0000  0.0781  0.0000  0.0219  0.0000  0.0219  0.0000 </r>
        <r>  0.0000  0.0000  0.0078  0.0000  0.3106  0.0000  0.0000  0.0000  0.0001 </r>
       </set>
       <set comment="band 16">
        <r>  0.0057  0.0000  0.0000  0.0000  0.0000  0.0000  0.0597  0.0000  0.0000 </r>
        <r>  0.0000  0.0684  0.0000  0.0684  0.0000  0.0228  0.0000  0.0228  0.0000 </r>
       </set>
       <set comment="band 17">
        <r>  0.0000  0.0438  0.0000  0.0438  0.0000  0.0046  0.0000  0.0046  0.0000 </r>
        <r>  0.0432  0.0000  0.0000  0.0000  0.0000  0.0000  0.2429  0.0000  0.0000 </r>
       </set>
       <set comment="band 18">
        <r>  0.0000  0.0099  0.0000  0.0099  0.0000  0.0000  0.0000  0.0000  0.0000 </r>
        <r>  0.0000  0.0000  0.0012  0.0000  0.0359  0.0000  0.0000  0.0000  0.1792 </r>
       </set>
       <set comment="band 19">
        <r>  0.0000  0.0640  0.0000  0.0640  0.0000  0.0015  0.0000  0.0015  0.0000 </r>
        <r>  0.0098  0.0000  0.0000  0.0000  0.0000  0.0000  0.0098  0.0000  0.0000 </r>
       </set>
       <set comment="band 20">
        <r>  0.0713  0.0000  0.0000  0.0000  0.0000  0.0000  0.0253  0.0000  0.0000 </r>
        <r>  0.0000  0.0006  0.0000  0.0006  0.0000  0.0300  0.0000  0.0300  0.0000 </r>
       </set>
       <set comment="band 21">
        <r>  0.0000  0.0000  0.0044  0.0000  0.0884  0.0000  0.0000  0.0000  0.0376 </r>
        <r>  0.0000  0.0000  0.0000  0.0000  0.0000  0.0287  0.0000  0.0287  0.0000 </r>
       </set>
       <set comment="band 22">
        <r>  0.0000  0.0548  0.0000  0.0548  0.0000  0.0000  0.0000  0.0000  0.0000 </r>
        <r>  0.0000  0.0000  0.1790  0.0000  0.0417  0.0000  0.0000  0.0000  0.1913 </r>
       </set>
       <set comment="band 23">
        <r>  0.0147  0.0000  0.0000  0.0000  0.0000  0.0000  0.0414  0.0000  0.0000 </r>
        <r>  0.0000  0.0128  0.0000  0.0128  0.0000  0.2065  0.0000  0.2065  0.0000 </r>
       </set>
       <set comment="band 24">
        <r>  0.0000  0.0000  0.0100  0.0000  0.0536  0.0000  0.0000  0.0000  0.0327 </r>
        <r>  0.0000  0.0241  0.0000  0.0241  0.0000  0.1562  0.0000  0.1562  0.0000 </r>
       </set>
      </set>
      <set comment="kpoint 36">
       <set comment="band 1">
        <r>  0.0000  0.0063  0.0063  0.0000  0.0709  0.0000  0.0000  0.0709  0.0000 </r>
        <r>  0.5725  0.0000  0.0000  0.0000  0.0000  0.0000  0.0000  0.0000  0.0000 </r>
       </set>
       <set comment="band 2">
        <r>  0.0000  0.0001  0.0001  0.0000  0.4652  0.0000  0.0000  0.4652  0.0000 </r>
        <r>  0.0000  0.0000  0.0000  0.0073  0.0000  0.0013  0.0002  0.0000  0.0001 </r>
       </set>
       <set comment="band 3">
        <r>  0.0000  0.0000  0.0000  0.0006  0.0000  0.6246  0.2224  0.0000  0.0741 </r>
        <r>  0.0000  0.0062  0.0062  0.0000  0.0002  0.0000  0.0000  0.0002  0.0000 </r>
       </set>
       <set comment="band 4">
        <r>  0.0000  0.0000  0.0000  0.0000  0.0000  0.3101  0.4740  0.0000  0.1580 </r>
        <r>  0.0000  0.0000  0.0000  0.0000  0.0006  0.0000  0.0000  0.0006  0.0000 </r>
       </set>
       <set comment="band 5">
        <r>  0.0003  0.0000  0.0000  0.0000  0.0000  0.0000  0.2357  0.0000  0.7070 </r>
        <r>  0.0000  0.0008  0.0008  0.0000  0.0000  0.0000  0.0000  0.0000  0.0000 </r>
       </set>
       <set comment="band 6">
        <r>  0.0000  0.0020  0.0020  0.0000  0.4077  0.0000  0.0000  0.4077  0.0000 </r>
        <r>  0.1110  0.0000  0.0000  0.0000  0.0000  0.0000  0.0000  0.0000  0.0001 </r>
       </set>
       <set comment="band 7">
        <r>  0.2636  0.0000  0.0000  0.0000  0.0000  0.0000  0.0013  0.0000  0.0040 </r>
        <r>  0.0000  0.1086  0.1086  0.0000  0.0023  0.0000  0.0000  0.0023  0.0000 </r>
       </set>
       <set comment="band 8">
        <r>  0.0000  0.0000  0.0000  0.0637  0.0000  0.0150  0.0190  0.0000  0.0063 </r>
        <r>  0.0000  0.1663  0.1663  0.0000  0.0000  0.0000  0.0000  0.0000  0.0000 </r>
       </set>
       <set comment="band 9">
        <r>  0.0000  0.0413  0.0413  0.0000  0.0035  0.0000  0.0000  0.0035  0.0000 </r>
        <r>  0.0000  0.0000  0.0000  0.3307  0.0000  0.0003  0.0018  0.0000  0.0006 </r>
       </set>
       <set comment="band 10">
        <r>  0.2501  0.0000  0.0000  0.0000  0.0000  0.0000  0.0026  0.0000  0.0078 </r>
        <r>  0.0000  0.1415  0.1415  0.0000  0.0212  0.0000  0.0000  0.0212  0.0000 </r>
       </set>
       <set comment="band 11">
        <r>  0.0000  0.0145  0.0145  0.0000  0.0247  0.0000  0.0000  0.0247  0.0000 </r>
        <r>  0.0000  0.0000  0.0000  0.1629  0.0000  0.0013  0.0344  0.0000  0.0115 </r>
       </set>
       <set comment="band 12">
        <r>  0.0000  0.0939  0.0939  0.0000  0.0061  0.0000  0.0000  0.0061  0.0000 </r>
        <r>  0.0781  0.0000  0.0000  0.0000  0.0000  0.0000  0.0090  0.0000  0.0269 </r>
       </set>
       <set comment="band 13">
        <r>  0.0000  0.0000  0.0000  0.0942  0.0000  0.0062  0.0221  0.0000  0.0074 </r>
        <r>  0.0000  0.0087  0.0087  0.0000  0.0503  0.0000  0.0000  0.0503  0.0000 </r>
       </set>
       <set comment="band 14">
        <r>  0.0000  0.0000  0.0000  0.1484  0.0000  0.0332  0.0013  0.0000  0.0004 </r>
        <r>  0.0000  0.1374  0.1374  0.0000  0.0000  0.0000  0.0000  0.0000  0.0000 </r>
       </set>
       <set comment="band 15">
        <r>  0.0000  0.0781  0.0781  0.0000  0.0219  0.0000  0.0000  0.0219  0.0000 </r>
        <r>  0.0000  0.0000  0.0000  0.0078  0.0000  0.3106  0.0001  0.0000  0.0000 </r>
       </set>
       <set comment="band 16">
        <r>  0.0057  0.0000  0.0000  0.0000  0.0000  0.0000  0.0149  0.0000  0.0448 </r>
        <r>  0.0000  0.0684  0.0684  0.0000  0.0228  0.0000  0.0000  0.0228  0.0000 </r>
       </set>
       <set comment="band 17">
        <r>  0.0000  0.0438  0.0438  0.0000  0.0046  0.0000  0.0000  0.0046  0.0000 </r>
        <r>  0.0432  0.0000  0.0000  0.0000  0.0000  0.0000  0.0607  0.0000  0.1822 </r>
       </set>
       <set comment="band 18">
        <r>  0.0000  0.0099  0.0099  0.0000  0.0000  0.0000  0.0000  0.0000  0.0000 </r>
        <r>  0.0000  0.0000  0.0000  0.0012  0.0000  0.0359  0.1344  0.0000  0.0448 </r>
       </set>
       <set comment="band 19">
        <r>  0.0000  0.0640  0.0640  0.0000  0.0015  0.0000  0.0000  0.0015  0.0000 </r>
        <r>  0.0098  0.0000  0.0000  0.0000  0.0000  0.0000  0.0024  0.0000  0.0073 </r>
       </set>
       <set comment="band 20">
        <r>  0.0713  0.0000  0.0000  0.0000  0.0000  0.0000  0.0063  0.0000  0.0190 </r>
        <r>  0.0000  0.0006  0.0006  0.0000  0.0300  0.0000  0.0000  0.0300  0.0000 </r>
       </set>
       <set comment="band 21">
        <r>  0.0000  0.0000  0.0000  0.0044  0.0000  0.0884  0.0282  0.0000  0.0094 </r>
        <r>  0.0000  0.0000  0.0000  0.0000  0.0287  0.0000  0.0000  0.0287  0.0000 </r>
       </set>
       <set comment="band 22">
        <r>  0.0000  0.0548  0.0548  0.0000  0.0000  0.0000  0.0000  0.0000  0.0000 </r>
        <r>  0.0000  0.0000  0.0000  0.1790  0.0000  0.0417  0.1435  0.0000  0.0478 </r>
       </set>
       <set comment="band 23">
        <r>  0.0147  0.0000  0.0000  0.0000  0.0000  0.0000  0.0103  0.0000  0.0310 </r>
        <r>  0.0000  0.0128  0.0128  0.0000  0.2065  0.0000  0.0000  0.2065  0.0000 </r>
       </set>
       <set comment="band 24">
        <r>  0.0000  0.0000  0.0000  0.0100  0.0000  0.0536  0.0246  0.0000  0.0082 </r>
        <r>  0.0000  0.0241  0.0241  0.0000  0.1562  0.0000  0.0000  0.1562  0.0000 </r>
       </set>
      </set>
     </set>
    </set>
   </array>
  </projected>
 </calculation>
 <structure name="finalpos" >
  <crystal>
   <varray name="basis" >
    <v>       0.00000000       3.27032600       3.27032600 </v>
    <v>       3.27032600       0.00000000       3.27032600 </v>
    <v>       3.27032600       3.27032600       0.00000000 </v>
   </varray>
   <i name="volume">     69.95248340 </i>
   <varray name="rec_basis" >
    <v>      -0.15288996       0.15288996       0.15288996 </v>
    <v>       0.15288996      -0.15288996       0.15288996 </v>
    <v>       0.15288996       0.15288996      -0.15288996 </v>
   </varray>
  </crystal>
  <varray name="positions" >
   <v>       0.00000000       0.00000000       0.00000000 </v>
   <v>       0.25000000       0.25000000       0.25000000 </v>
  </varray>
 </structure>
</modeling>
