<?xml version="1.0" encoding="ISO-8859-1"?>
<modeling>
 <generator>
  <i name="program" type="string">vasp </i>
  <i name="version" type="string">6.2.1  </i>
  <i name="subversion" type="string">16May21 (build Jan 06 2022 15:24:29) complex                          parallel </i>
  <i name="platform" type="string">IFC15_impi </i>
  <i name="date" type="string">2022 11 16 </i>
  <i name="time" type="string">13:00:59 </i>
 </generator>
 <incar>
  <i type="int" name="ISTART">     0</i>
  <i type="string" name="PREC">ACCURATE</i>
  <i type="string" name="ALGO">Damped</i>
  <i type="logical" name="LSUBROT"> T  </i>
  <i type="int" name="IBRION">     2</i>
  <i name="EDIFF">      0.00001000</i>
  <i name="EDIFFG">     -0.01000000</i>
  <i type="int" name="NSW">   300</i>
  <i type="int" name="ISIF">     3</i>
  <i name="ENCUT">    500.00000000</i>
  <i name="POTIM">      0.10000000</i>
  <i type="logical" name="LREAL"> F  </i>
  <i type="int" name="ISMEAR">     0</i>
  <i name="SIGMA">      0.10000000</i>
  <i type="logical" name="LWAVE"> T  </i>
  <i type="logical" name="LCHARG"> T  </i>
  <i type="string" name="GGA">PS</i>
 </incar>
 <primitive_cell>
  <structure name="primitive_cell" >
   <crystal>
    <varray name="basis" >
     <v>       4.65327200       0.00000000       0.00000000 </v>
     <v>       0.00000000       4.65327200       0.00000000 </v>
     <v>       0.00000000       0.00000000       2.96920300 </v>
    </varray>
    <i name="volume">     64.29197532 </i>
    <varray name="rec_basis" >
     <v>       0.21490255      -0.00000000       0.00000000 </v>
     <v>       0.00000000       0.21490255       0.00000000 </v>
     <v>      -0.00000000      -0.00000000       0.33679071 </v>
    </varray>
   </crystal>
   <varray name="positions" >
    <v>       0.50000000       0.50000000       0.50000000 </v>
    <v>       0.00000000       0.00000000       0.00000000 </v>
    <v>       0.19542000       0.80458000       0.50000000 </v>
    <v>       0.80458000       0.19542000       0.50000000 </v>
    <v>       0.30458000       0.30458000       0.00000000 </v>
    <v>       0.69542000       0.69542000       0.00000000 </v>
   </varray>
  </structure>
  <varray name="primitive_index" >
   <v type="int" >        1 </v>
   <v type="int" >        2 </v>
   <v type="int" >        3 </v>
   <v type="int" >        4 </v>
   <v type="int" >        5 </v>
   <v type="int" >        6 </v>
  </varray>
 </primitive_cell>
 <kpoints>
  <generation param="Gamma">
   <v type="int" name="divisions">       6        6        9 </v>
   <v name="usershift">      0.00000000       0.00000000       0.00000000 </v>
   <v name="genvec1">      0.16666667       0.00000000       0.00000000 </v>
   <v name="genvec2">      0.00000000       0.16666667       0.00000000 </v>
   <v name="genvec3">      0.00000000       0.00000000       0.11111111 </v>
   <v name="shift">      0.00000000       0.00000000       0.00000000 </v>
  </generation>
  <varray name="kpointlist" >
   <v>       0.00000000       0.00000000       0.00000000 </v>
   <v>       0.16666667      -0.00000000       0.00000000 </v>
   <v>       0.33333333       0.00000000       0.00000000 </v>
   <v>       0.50000000       0.00000000       0.00000000 </v>
   <v>       0.16666667       0.16666667       0.00000000 </v>
   <v>       0.33333333       0.16666667       0.00000000 </v>
   <v>       0.50000000       0.16666667       0.00000000 </v>
   <v>       0.33333333       0.33333333       0.00000000 </v>
   <v>       0.50000000       0.33333333       0.00000000 </v>
   <v>       0.50000000       0.50000000       0.00000000 </v>
   <v>      -0.00000000      -0.00000000       0.11111111 </v>
   <v>       0.16666667      -0.00000000       0.11111111 </v>
   <v>       0.33333333       0.00000000       0.11111111 </v>
   <v>       0.50000000       0.00000000       0.11111111 </v>
   <v>       0.16666667       0.16666667       0.11111111 </v>
   <v>       0.33333333       0.16666667       0.11111111 </v>
   <v>       0.50000000       0.16666667       0.11111111 </v>
   <v>       0.33333333       0.33333333       0.11111111 </v>
   <v>       0.50000000       0.33333333       0.11111111 </v>
   <v>       0.50000000       0.50000000       0.11111111 </v>
   <v>       0.00000000       0.00000000       0.22222222 </v>
   <v>       0.16666667      -0.00000000       0.22222222 </v>
   <v>       0.33333333       0.00000000       0.22222222 </v>
   <v>       0.50000000       0.00000000       0.22222222 </v>
   <v>       0.16666667       0.16666667       0.22222222 </v>
   <v>       0.33333333       0.16666667       0.22222222 </v>
   <v>       0.50000000       0.16666667       0.22222222 </v>
   <v>       0.33333333       0.33333333       0.22222222 </v>
   <v>       0.50000000       0.33333333       0.22222222 </v>
   <v>       0.50000000       0.50000000       0.22222222 </v>
   <v>      -0.00000000      -0.00000000       0.33333333 </v>
   <v>       0.16666667      -0.00000000       0.33333333 </v>
   <v>       0.33333333      -0.00000000       0.33333333 </v>
   <v>       0.50000000      -0.00000000       0.33333333 </v>
   <v>       0.16666667       0.16666667       0.33333333 </v>
   <v>       0.33333333       0.16666667       0.33333333 </v>
   <v>       0.50000000       0.16666667       0.33333333 </v>
   <v>       0.33333333       0.33333333       0.33333333 </v>
   <v>       0.50000000       0.33333333       0.33333333 </v>
   <v>       0.50000000       0.50000000       0.33333333 </v>
   <v>       0.00000000       0.00000000       0.44444444 </v>
   <v>       0.16666667       0.00000000       0.44444444 </v>
   <v>       0.33333333       0.00000000       0.44444444 </v>
   <v>       0.50000000       0.00000000       0.44444444 </v>
   <v>       0.16666667       0.16666667       0.44444444 </v>
   <v>       0.33333333       0.16666667       0.44444444 </v>
   <v>       0.50000000       0.16666667       0.44444444 </v>
   <v>       0.33333333       0.33333333       0.44444444 </v>
   <v>       0.50000000       0.33333333       0.44444444 </v>
   <v>       0.50000000       0.50000000       0.44444444 </v>
  </varray>
  <varray name="weights" >
   <v>       0.00308642 </v>
   <v>       0.01234568 </v>
   <v>       0.01234568 </v>
   <v>       0.00617284 </v>
   <v>       0.01234568 </v>
   <v>       0.02469136 </v>
   <v>       0.01234568 </v>
   <v>       0.01234568 </v>
   <v>       0.01234568 </v>
   <v>       0.00308642 </v>
   <v>       0.00617284 </v>
   <v>       0.02469136 </v>
   <v>       0.02469136 </v>
   <v>       0.01234568 </v>
   <v>       0.02469136 </v>
   <v>       0.04938272 </v>
   <v>       0.02469136 </v>
   <v>       0.02469136 </v>
   <v>       0.02469136 </v>
   <v>       0.00617284 </v>
   <v>       0.00617284 </v>
   <v>       0.02469136 </v>
   <v>       0.02469136 </v>
   <v>       0.01234568 </v>
   <v>       0.02469136 </v>
   <v>       0.04938272 </v>
   <v>       0.02469136 </v>
   <v>       0.02469136 </v>
   <v>       0.02469136 </v>
   <v>       0.00617284 </v>
   <v>       0.00617284 </v>
   <v>       0.02469136 </v>
   <v>       0.02469136 </v>
   <v>       0.01234568 </v>
   <v>       0.02469136 </v>
   <v>       0.04938272 </v>
   <v>       0.02469136 </v>
   <v>       0.02469136 </v>
   <v>       0.02469136 </v>
   <v>       0.00617284 </v>
   <v>       0.00617284 </v>
   <v>       0.02469136 </v>
   <v>       0.02469136 </v>
   <v>       0.01234568 </v>
   <v>       0.02469136 </v>
   <v>       0.04938272 </v>
   <v>       0.02469136 </v>
   <v>       0.02469136 </v>
   <v>       0.02469136 </v>
   <v>       0.00617284 </v>
  </varray>
 </kpoints>
 <parameters>
  <separator name="general" >
   <i type="string" name="SYSTEM">unknown system</i>
   <i type="logical" name="LCOMPAT"> F  </i>
  </separator>
  <separator name="electronic" >
   <i type="string" name="PREC">accura</i>
   <i name="ENMAX">    500.00000000</i>
   <i name="ENAUG">    605.39200000</i>
   <i name="EDIFF">      0.00001000</i>
   <i type="int" name="IALGO">    53</i>
   <i type="int" name="IWAVPR">    11</i>
   <i type="int" name="NBANDS">    32</i>
   <i type="int" name="NBANDSLOW">    -1</i>
   <i type="int" name="NBANDSHIGH">    -1</i>
   <i name="NELECT">     44.00000000</i>
   <i type="int" name="TURBO">     0</i>
   <i type="int" name="IRESTART">     0</i>
   <i type="int" name="NREBOOT">     0</i>
   <i type="int" name="NMIN">     0</i>
   <i name="EREF">      0.00000000</i>
   <separator name="electronic smearing" >
    <i type="int" name="ISMEAR">     0</i>
    <i name="SIGMA">      0.10000000</i>
    <i name="KSPACING">      0.50000000</i>
    <i type="logical" name="KGAMMA"> T  </i>
    <i type="logical" name="KBLOWUP"> T  </i>
   </separator>
   <separator name="electronic projectors" >
    <i type="logical" name="LREAL"> F  </i>
    <v name="ROPT">      0.00000000      0.00000000</v>
    <i type="int" name="LMAXPAW">  -100</i>
    <i type="int" name="LMAXMIX">     2</i>
    <i type="logical" name="NLSPLINE"> F  </i>
   </separator>
   <separator name="electronic startup" >
    <i type="int" name="ISTART">     0</i>
    <i type="int" name="ICHARG">     2</i>
    <i type="int" name="INIWAV">     1</i>
   </separator>
   <separator name="electronic spin" >
    <i type="int" name="ISPIN">     1</i>
    <i type="logical" name="LNONCOLLINEAR"> F  </i>
    <v name="MAGMOM">      1.00000000      1.00000000      1.00000000      1.00000000      1.00000000      1.00000000</v>
    <i name="NUPDOWN">     -1.00000000</i>
    <i type="logical" name="LSORBIT"> F  </i>
    <v name="SAXIS">      0.00000000      0.00000000      1.00000000</v>
    <i type="logical" name="LSPIRAL"> F  </i>
    <v name="QSPIRAL">      0.00000000      0.00000000      0.00000000</v>
    <i type="logical" name="LZEROZ"> F  </i>
   </separator>
   <separator name="electronic exchange-correlation" >
    <i type="logical" name="LASPH"> F  </i>
    <i type="logical" name="LMETAGGA"> F  </i>
   </separator>
   <separator name="electronic convergence" >
    <i type="int" name="NELM">    60</i>
    <i type="int" name="NELMDL">    -5</i>
    <i type="int" name="NELMIN">     2</i>
    <i name="ENINI">    500.00000000</i>
    <separator name="electronic convergence detail" >
     <i type="logical" name="LDIAG"> T  </i>
     <i type="logical" name="LSUBROT"> T  </i>
     <i name="WEIMIN">      0.00100000</i>
     <i name="EBREAK">      0.00000008</i>
     <i name="DEPER">      0.30000000</i>
     <i type="int" name="NRMM">     4</i>
     <i name="TIME">      0.40000000</i>
    </separator>
   </separator>
   <separator name="electronic mixer" >
    <i name="AMIX">      0.40000000</i>
    <i name="BMIX">      1.00000000</i>
    <i name="AMIN">      0.10000000</i>
    <i name="AMIX_MAG">      1.60000000</i>
    <i name="BMIX_MAG">      1.00000000</i>
    <separator name="electronic mixer details" >
     <i type="int" name="IMIX">     4</i>
     <i type="logical" name="MIXFIRST"> F  </i>
     <i type="int" name="MAXMIX">   -45</i>
     <i name="WC">    100.00000000</i>
     <i type="int" name="INIMIX">     1</i>
     <i type="int" name="MIXPRE">     1</i>
     <i type="int" name="MREMOVE">     5</i>
    </separator>
   </separator>
   <separator name="electronic dipolcorrection" >
    <i type="logical" name="LDIPOL"> F  </i>
    <i type="logical" name="LMONO"> F  </i>
    <i type="int" name="IDIPOL">     0</i>
    <i name="EPSILON">      1.00000000</i>
    <v name="DIPOL">   -100.00000000   -100.00000000   -100.00000000</v>
    <i name="EFIELD">      0.00000000</i>
   </separator>
  </separator>
  <separator name="grids" >
   <i type="int" name="NGX">    36</i>
   <i type="int" name="NGY">    36</i>
   <i type="int" name="NGZ">    24</i>
   <i type="int" name="NGXF">    72</i>
   <i type="int" name="NGYF">    72</i>
   <i type="int" name="NGZF">    48</i>
   <i type="logical" name="ADDGRID"> F  </i>
  </separator>
  <separator name="ionic" >
   <i type="int" name="NSW">   300</i>
   <i type="int" name="IBRION">     2</i>
   <i type="int" name="MDALGO">     0</i>
   <i type="int" name="ISIF">     3</i>
   <i name="PSTRESS">      0.00000000</i>
   <i name="EDIFFG">     -0.01000000</i>
   <i type="int" name="NFREE">     1</i>
   <i name="POTIM">      0.10000000</i>
   <i name="SMASS">     -3.00000000</i>
   <i name="SCALEE">      1.00000000</i>
  </separator>
  <separator name="ionic md" >
   <i name="TEBEG">      0.00010000</i>
   <i name="TEEND">      0.00010000</i>
   <i type="int" name="NBLOCK">     1</i>
   <i type="int" name="KBLOCK">   300</i>
   <i type="int" name="NPACO">   256</i>
   <i name="APACO">     16.00000000</i>
  </separator>
  <separator name="symmetry" >
   <i type="int" name="ISYM">     2</i>
   <i name="SYMPREC">      0.00001000</i>
  </separator>
  <separator name="dos" >
   <i type="int" name="LORBIT">     0</i>
   <v name="RWIGS">     -1.00000000     -1.00000000</v>
   <i type="int" name="NEDOS">   301</i>
   <i name="EMIN">     10.00000000</i>
   <i name="EMAX">    -10.00000000</i>
   <i name="EFERMI">      0.00000000</i>
  </separator>
  <separator name="writing" >
   <i type="int" name="NWRITE">     2</i>
   <i type="logical" name="LWAVE"> T  </i>
   <i type="logical" name="LDOWNSAMPLE"> F  </i>
   <i type="logical" name="LCHARG"> T  </i>
   <i type="logical" name="LPARD"> F  </i>
   <i type="logical" name="LVTOT"> F  </i>
   <i type="logical" name="LVHAR"> F  </i>
   <i type="logical" name="LELF"> F  </i>
   <i type="logical" name="LOPTICS"> F  </i>
   <v name="STM">      0.00000000      0.00000000      0.00000000      0.00000000      0.00000000      0.00000000      0.00000000</v>
  </separator>
  <separator name="performance" >
   <i type="int" name="NPAR">    16</i>
   <i type="int" name="NSIM">     4</i>
   <i type="int" name="NBLK">    -1</i>
   <i type="logical" name="LPLANE"> T  </i>
   <i type="logical" name="LSCALAPACK"> F  </i>
   <i type="logical" name="LSCAAWARE"> F  </i>
   <i type="logical" name="LSCALU"> F  </i>
   <i type="logical" name="LASYNC"> F  </i>
   <i type="logical" name="LORBITALREAL"> F  </i>
  </separator>
  <separator name="miscellaneous" >
   <i type="int" name="IDIOT">     3</i>
   <i type="int" name="PHON_NSTRUCT">    -1</i>
   <i type="logical" name="LMUSIC"> F  </i>
   <v name="POMASS">     47.88000000     16.00000000</v>
   <v name="DARWINR">      0.00000000      0.00000000</v>
   <v name="DARWINV">      1.00000000      1.00000000</v>
   <i type="logical" name="LCORR"> T  </i>
  </separator>
  <i type="logical" name="GGA_COMPAT"> T  </i>
  <i type="logical" name="LBERRY"> F  </i>
  <i type="int" name="ICORELEVEL">     0</i>
  <i type="logical" name="LDAU"> F  </i>
  <i type="int" name="I_CONSTRAINED_M">     0</i>
  <separator name="electronic exchange-correlation" >
   <i type="string" name="GGA">PS</i>
   <i type="int" name="VOSKOWN">     0</i>
   <i type="logical" name="LHFCALC"> F  </i>
   <i type="string" name="PRECFOCK"></i>
   <i type="logical" name="LSYMGRAD"> F  </i>
   <i type="logical" name="LHFONE"> F  </i>
   <i type="logical" name="LRHFCALC"> F  </i>
   <i type="logical" name="LTHOMAS"> F  </i>
   <i type="logical" name="LMODELHF"> F  </i>
   <i type="logical" name="LFOCKACE"> F  </i>
   <i name="ENCUT4O">     -1.00000000</i>
   <i type="int" name="EXXOEP">     0</i>
   <i type="int" name="FOURORBIT">     0</i>
   <i name="AEXX">      0.00000000</i>
   <i name="HFALPHA">      0.00000000</i>
   <i name="MCALPHA">      0.00000000</i>
   <i name="ALDAX">      1.00000000</i>
   <i name="AGGAX">      1.00000000</i>
   <i name="ALDAC">      1.00000000</i>
   <i name="AGGAC">      1.00000000</i>
   <i type="int" name="NKREDX">     1</i>
   <i type="int" name="NKREDY">     1</i>
   <i type="int" name="NKREDZ">     1</i>
   <i type="logical" name="SHIFTRED"> F  </i>
   <i type="logical" name="ODDONLY"> F  </i>
   <i type="logical" name="EVENONLY"> F  </i>
   <i type="int" name="LMAXFOCK">     0</i>
   <i type="int" name="NMAXFOCKAE">     0</i>
   <i type="logical" name="LFOCKAEDFT"> F  </i>
   <i name="HFSCREEN">      0.00000000</i>
   <i name="HFSCREENC">      0.00000000</i>
   <i type="int" name="NBANDSGWLOW">     0</i>
  </separator>
  <separator name="vdW DFT" >
   <i type="logical" name="LUSE_VDW"> F  </i>
   <i name="Zab_VDW">     -0.84910000</i>
   <i name="PARAM1">      0.12340000</i>
   <i name="PARAM2">      1.00000000</i>
   <i name="PARAM3">      0.00000000</i>
  </separator>
  <separator name="model GW" >
   <i type="int" name="MODEL_GW">     0</i>
   <i name="MODEL_EPS0">      6.42919753</i>
   <i name="MODEL_ALPHA">      1.00000000</i>
  </separator>
  <separator name="linear response parameters" >
   <i type="logical" name="LEPSILON"> F  </i>
   <i type="logical" name="LRPA"> F  </i>
   <i type="logical" name="LNABLA"> F  </i>
   <i type="logical" name="LVEL"> F  </i>
   <i type="int" name="KINTER">     0</i>
   <i name="CSHIFT">      0.10000000</i>
   <i name="OMEGAMAX">     -1.00000000</i>
   <i name="DEG_THRESHOLD">      0.00200000</i>
   <i name="RTIME">     -0.10000000</i>
   <i name="WPLASMAI">      0.00000000</i>
   <v name="DFIELD">      0.00000000      0.00000000      0.00000000</v>
   <v name="WPLASMA">      0.00000000      0.00000000      0.00000000      0.00000000      0.00000000      0.00000000      0.00000000      0.00000000      0.00000000</v>
  </separator>
  <separator name="orbital magnetization" >
   <i type="logical" name="NUCIND"> F  </i>
   <v name="MAGPOS">      0.00000000      0.00000000      0.00000000</v>
   <i type="logical" name="LNICSALL"> T  </i>
   <i type="logical" name="ORBITALMAG"> F  </i>
   <i type="logical" name="LMAGBLOCH"> F  </i>
   <i type="logical" name="LCHIMAG"> F  </i>
   <i type="logical" name="LGAUGE"> T  </i>
   <i type="int" name="MAGATOM">     0</i>
   <v name="MAGDIPOL">      0.00000000      0.00000000      0.00000000</v>
   <v name="AVECCONST">      0.00000000      0.00000000      0.00000000</v>
  </separator>
  <separator name="response functions" >
   <i type="logical" name="LFINITE_TEMPERATURE"> F  </i>
   <i type="logical" name="LADDER"> F  </i>
   <i type="logical" name="LRPAFORCE"> F  </i>
   <i type="logical" name="LFXC"> F  </i>
   <i type="logical" name="LHARTREE"> T  </i>
   <i type="int" name="IBSE">     0</i>
   <v type="int" name="KPOINT">    -1     0     0     0</v>
   <i type="logical" name="LTCTC"> F  </i>
   <i type="logical" name="LTCTE"> F  </i>
   <i type="logical" name="LTETE"> F  </i>
   <i type="logical" name="LTRIPLET"> F  </i>
   <i type="logical" name="LFXCEPS"> F  </i>
   <i type="logical" name="LFXHEG"> F  </i>
   <i type="int" name="NATURALO">     2</i>
   <i type="logical" name="LHOLEGF"> F  </i>
   <i type="logical" name="L2ORDER"> F  </i>
   <i type="logical" name="LDMP1"> F  </i>
   <i type="logical" name="LMP2LT"> F  </i>
   <i type="logical" name="LSMP2LT"> F  </i>
   <i type="logical" name="LGWLF"> F  </i>
   <i name="ENCUTGW">     -2.00000000</i>
   <i name="ENCUTGWSOFT">     -2.00000000</i>
   <i name="ENCUTLF">     -1.00000000</i>
   <i type="logical" name="LESF_SPLINES"> F  </i>
   <i type="int" name="LMAXMP2">    -1</i>
   <i name="SCISSOR">      0.00000000</i>
   <i type="int" name="NOMEGA">     0</i>
   <i type="int" name="NOMEGAR">     0</i>
   <i type="int" name="NBANDSGW">    -1</i>
   <i type="int" name="NBANDSO">    -1</i>
   <i type="int" name="NBANDSV">    -1</i>
   <i type="int" name="NELM">     1</i>
   <i type="int" name="NELMHF">     1</i>
   <i type="int" name="DIM">     3</i>
   <i type="int" name="IESPILON">     4</i>
   <i type="int" name="ANTIRES">     0</i>
   <i name="OMEGAMAX">    -30.00000000</i>
   <i name="OMEGAMIN">    -30.00000000</i>
   <i name="OMEGATL">   -200.00000000</i>
   <i type="int" name="OMEGAGRID">     0</i>
   <i name="CSHIFT">     -0.10000000</i>
   <i type="logical" name="LSELFENERGY"> F  </i>
   <i type="logical" name="LSPECTRAL"> F  </i>
   <i type="logical" name="LSPECTRALGW"> F  </i>
   <i type="logical" name="LSINGLES"> F  </i>
   <i type="logical" name="LFERMIGW"> F  </i>
   <i type="logical" name="ODDONLYGW"> F  </i>
   <i type="logical" name="EVENONLYGW"> F  </i>
   <i type="int" name="NKREDLFX">     1</i>
   <i type="int" name="NKREDLFY">     1</i>
   <i type="int" name="NKREDLFZ">     1</i>
   <i type="int" name="MAXMEM">  2800</i>
   <i type="int" name="TELESCOPE">     0</i>
   <i type="int" name="NTAUPAR">    -1</i>
   <i type="int" name="NOMEGAPAR">    -1</i>
   <i name="DAMP_NEWTON">      0.80000001</i>
   <i name="LAMBDA">      1.00000000</i>
  </separator>
  <separator name="External order field" >
   <i name="OFIELD_KAPPA">      0.00000000</i>
   <v name="OFIELD_K">      0.00000000      0.00000000      0.00000000</v>
   <i name="OFIELD_Q6_NEAR">      0.00000000</i>
   <i name="OFIELD_Q6_FAR">      0.00000000</i>
   <i name="OFIELD_A">      0.00000000</i>
  </separator>
 </parameters>
 <atominfo>
  <atoms>       6 </atoms>
  <types>       2 </types>
  <array name="atoms" >
   <dimension dim="1">ion</dimension>
   <field type="string">element</field>
   <field type="int">atomtype</field>
   <set>
    <rc><c>Ti</c><c>   1</c></rc>
    <rc><c>Ti</c><c>   1</c></rc>
    <rc><c>O </c><c>   2</c></rc>
    <rc><c>O </c><c>   2</c></rc>
    <rc><c>O </c><c>   2</c></rc>
    <rc><c>O </c><c>   2</c></rc>
   </set>
  </array>
  <array name="atomtypes" >
   <dimension dim="1">type</dimension>
   <field type="int">atomspertype</field>
   <field type="string">element</field>
   <field>mass</field>
   <field>valence</field>
   <field type="string">pseudopotential</field>
   <set>
    <rc><c>   2</c><c>Ti</c><c>     47.88000000</c><c>     10.00000000</c><c>  PAW_PBE Ti_pv 07Sep2000               </c></rc>
    <rc><c>   4</c><c>O </c><c>     16.00000000</c><c>      6.00000000</c><c>  PAW_PBE O 08Apr2002                   </c></rc>
   </set>
  </array>
 </atominfo>
 <structure name="initialpos" >
  <crystal>
   <varray name="basis" >
    <v>       4.65327200       0.00000000       0.00000000 </v>
    <v>       0.00000000       4.65327200       0.00000000 </v>
    <v>       0.00000000       0.00000000       2.96920300 </v>
   </varray>
   <i name="volume">     64.29197532 </i>
   <varray name="rec_basis" >
    <v>       0.21490255      -0.00000000       0.00000000 </v>
    <v>       0.00000000       0.21490255       0.00000000 </v>
    <v>      -0.00000000      -0.00000000       0.33679071 </v>
   </varray>
  </crystal>
  <varray name="positions" >
   <v>       0.50000000       0.50000000       0.50000000 </v>
   <v>       0.00000000       0.00000000       0.00000000 </v>
   <v>       0.19542000       0.80458000       0.50000000 </v>
   <v>       0.80458000       0.19542000       0.50000000 </v>
   <v>       0.30458000       0.30458000       0.00000000 </v>
   <v>       0.69542000       0.69542000       0.00000000 </v>
  </varray>
 </structure>
 <calculation>
  <scstep>
   <time name="total">    1.49    1.58</time>
   <energy>
    <i name="alphaZ">    212.66391317 </i>
    <i name="ewald">  -2904.84785596 </i>
    <i name="hartreedc">   -895.73542226 </i>
    <i name="XCdc">    185.12320315 </i>
    <i name="pawpsdc">   3021.72952082 </i>
    <i name="pawaedc">  -3026.49902500 </i>
    <i name="eentropy">     -0.01517797 </i>
    <i name="bandstr">    214.29198241 </i>
    <i name="atom">   3805.83765485 </i>
    <i name="e_fr_energy">    612.54879321 </i>
    <i name="e_wo_entrp">    612.56397118 </i>
    <i name="e_0_energy">    612.55638220 </i>
   </energy>
  </scstep>
  <scstep>
   <time name="total">    2.43    2.43</time>
   <energy>
    <i name="e_fr_energy">     39.96038135 </i>
    <i name="e_wo_entrp">     39.97045776 </i>
    <i name="e_0_energy">     39.96541956 </i>
   </energy>
  </scstep>
  <scstep>
   <time name="total">    1.98    2.01</time>
   <energy>
    <i name="e_fr_energy">    -56.11953528 </i>
    <i name="e_wo_entrp">    -56.11953528 </i>
    <i name="e_0_energy">    -56.11953528 </i>
   </energy>
  </scstep>
  <scstep>
   <time name="total">    2.17    2.21</time>
   <energy>
    <i name="e_fr_energy">    -70.72200954 </i>
    <i name="e_wo_entrp">    -70.72200954 </i>
    <i name="e_0_energy">    -70.72200954 </i>
   </energy>
  </scstep>
  <scstep>
   <time name="total">    2.15    2.22</time>
   <energy>
    <i name="e_fr_energy">    -72.53739617 </i>
    <i name="e_wo_entrp">    -72.53739617 </i>
    <i name="e_0_energy">    -72.53739617 </i>
   </energy>
  </scstep>
  <scstep>
   <time name="total">    2.38    2.47</time>
   <energy>
    <i name="e_fr_energy">    -21.61134206 </i>
    <i name="e_wo_entrp">    -21.61134206 </i>
    <i name="e_0_energy">    -21.61134206 </i>
   </energy>
  </scstep>
  <scstep>
   <time name="total">    2.71    2.72</time>
   <energy>
    <i name="e_fr_energy">    -45.20511334 </i>
    <i name="e_wo_entrp">    -45.20511334 </i>
    <i name="e_0_energy">    -45.20511334 </i>
   </energy>
  </scstep>
  <scstep>
   <time name="total">    2.29    2.36</time>
   <energy>
    <i name="e_fr_energy">    -48.29145607 </i>
    <i name="e_wo_entrp">    -48.29145607 </i>
    <i name="e_0_energy">    -48.29145607 </i>
   </energy>
  </scstep>
  <scstep>
   <time name="total">    2.89    2.96</time>
   <energy>
    <i name="e_fr_energy">    -54.14230643 </i>
    <i name="e_wo_entrp">    -54.14230643 </i>
    <i name="e_0_energy">    -54.14230643 </i>
   </energy>
  </scstep>
  <scstep>
   <time name="total">    2.32    2.36</time>
   <energy>
    <i name="e_fr_energy">    -54.84754327 </i>
    <i name="e_wo_entrp">    -54.84754327 </i>
    <i name="e_0_energy">    -54.84754327 </i>
   </energy>
  </scstep>
  <scstep>
   <time name="total">    2.63    2.67</time>
   <energy>
    <i name="e_fr_energy">    -55.57046630 </i>
    <i name="e_wo_entrp">    -55.57046630 </i>
    <i name="e_0_energy">    -55.57046630 </i>
   </energy>
  </scstep>
  <scstep>
   <time name="total">    2.62    2.66</time>
   <energy>
    <i name="e_fr_energy">    -55.69400837 </i>
    <i name="e_wo_entrp">    -55.69400837 </i>
    <i name="e_0_energy">    -55.69400837 </i>
   </energy>
  </scstep>
  <scstep>
   <time name="total">    2.34    2.34</time>
   <energy>
    <i name="e_fr_energy">    -55.80522854 </i>
    <i name="e_wo_entrp">    -55.80522854 </i>
    <i name="e_0_energy">    -55.80522854 </i>
   </energy>
  </scstep>
  <scstep>
   <time name="total">    2.29    2.33</time>
   <energy>
    <i name="e_fr_energy">    -55.81999521 </i>
    <i name="e_wo_entrp">    -55.81999521 </i>
    <i name="e_0_energy">    -55.81999521 </i>
   </energy>
  </scstep>
  <scstep>
   <time name="total">    2.31    2.35</time>
   <energy>
    <i name="e_fr_energy">    -55.83744517 </i>
    <i name="e_wo_entrp">    -55.83744517 </i>
    <i name="e_0_energy">    -55.83744517 </i>
   </energy>
  </scstep>
  <scstep>
   <time name="total">    2.48    2.52</time>
   <energy>
    <i name="e_fr_energy">    -55.83851177 </i>
    <i name="e_wo_entrp">    -55.83851177 </i>
    <i name="e_0_energy">    -55.83851177 </i>
   </energy>
  </scstep>
  <scstep>
   <time name="total">    2.33    2.37</time>
   <energy>
    <i name="e_fr_energy">    -55.84194765 </i>
    <i name="e_wo_entrp">    -55.84194765 </i>
    <i name="e_0_energy">    -55.84194765 </i>
   </energy>
  </scstep>
  <scstep>
   <time name="total">    2.29    2.32</time>
   <energy>
    <i name="e_fr_energy">    -55.84180738 </i>
    <i name="e_wo_entrp">    -55.84180738 </i>
    <i name="e_0_energy">    -55.84180738 </i>
   </energy>
  </scstep>
  <scstep>
   <time name="total">    2.29    2.32</time>
   <energy>
    <i name="e_fr_energy">    -55.84240385 </i>
    <i name="e_wo_entrp">    -55.84240385 </i>
    <i name="e_0_energy">    -55.84240385 </i>
   </energy>
  </scstep>
  <scstep>
   <time name="total">    1.96    2.00</time>
   <energy>
    <i name="e_fr_energy">    -55.84238018 </i>
    <i name="e_wo_entrp">    -55.84238018 </i>
    <i name="e_0_energy">    -55.84238018 </i>
   </energy>
  </scstep>
  <scstep>
   <time name="total">    1.97    2.01</time>
   <energy>
    <i name="e_fr_energy">    -55.84245192 </i>
    <i name="e_wo_entrp">    -55.84245192 </i>
    <i name="e_0_energy">    -55.84245192 </i>
   </energy>
  </scstep>
  <scstep>
   <time name="total">    1.96    2.00</time>
   <energy>
    <i name="e_fr_energy">    -55.84245920 </i>
    <i name="e_wo_entrp">    -55.84245920 </i>
    <i name="e_0_energy">    -55.84245920 </i>
   </energy>
  </scstep>
  <scstep>
   <time name="total">    1.83    1.87</time>
   <energy>
    <i name="alphaZ">    212.66391317 </i>
    <i name="ewald">  -2904.84785596 </i>
    <i name="hartreedc">   -875.85690443 </i>
    <i name="XCdc">    185.71957577 </i>
    <i name="pawpsdc">   4733.76468083 </i>
    <i name="pawaedc">  -4749.37914632 </i>
    <i name="eentropy">     -0.00000000 </i>
    <i name="bandstr">   -463.74438417 </i>
    <i name="atom">   3805.83765485 </i>
    <i name="e_fr_energy">    -55.84246624 </i>
    <i name="e_wo_entrp">    -55.84246624 </i>
    <i name="e_0_energy">    -55.84246624 </i>
   </energy>
  </scstep>
  <structure>
   <crystal>
    <varray name="basis" >
     <v>       4.65327200       0.00000000       0.00000000 </v>
     <v>       0.00000000       4.65327200       0.00000000 </v>
     <v>       0.00000000       0.00000000       2.96920300 </v>
    </varray>
    <i name="volume">     64.29197532 </i>
    <varray name="rec_basis" >
     <v>       0.21490255      -0.00000000       0.00000000 </v>
     <v>       0.00000000       0.21490255       0.00000000 </v>
     <v>      -0.00000000      -0.00000000       0.33679071 </v>
    </varray>
   </crystal>
   <varray name="positions" >
    <v>       0.50000000       0.50000000       0.50000000 </v>
    <v>       0.00000000       0.00000000       0.00000000 </v>
    <v>       0.19542000       0.80458000       0.50000000 </v>
    <v>       0.80458000       0.19542000       0.50000000 </v>
    <v>       0.30458000       0.30458000       0.00000000 </v>
    <v>       0.69542000       0.69542000       0.00000000 </v>
   </varray>
  </structure>
  <varray name="forces" >
   <v>      -0.00000000       0.00000000       0.00000000 </v>
   <v>       0.00000000       0.00000000       0.00000000 </v>
   <v>      -0.08398770       0.08398770      -0.00000000 </v>
   <v>       0.08398770      -0.08398770      -0.00000000 </v>
   <v>       0.08398770       0.08398770       0.00000000 </v>
   <v>      -0.08398770      -0.08398770      -0.00000000 </v>
  </varray>
  <varray name="stress" >
   <v>     -68.72663031      -0.00000000      -0.00000000 </v>
   <v>      -0.00000000     -68.72663031      -0.00000000 </v>
   <v>      -0.00000000      -0.00000000     -79.89021102 </v>
  </varray>
  <energy>
   <i name="e_fr_energy">    -55.84246624 </i>
   <i name="e_wo_entrp">    -55.84246624 </i>
   <i name="e_0_energy">    -55.84246624 </i>
  </energy>
  <time name="totalsc">   54.71   55.72</time>
 </calculation>
 <calculation>
  <scstep>
   <time name="total">    1.99    2.02</time>
   <energy>
    <i name="alphaZ">    215.67466744 </i>
    <i name="ewald">  -2918.00647687 </i>
    <i name="hartreedc">   -880.24594689 </i>
    <i name="XCdc">    186.67661925 </i>
    <i name="pawpsdc">   4743.52140199 </i>
    <i name="pawaedc">  -4759.92275114 </i>
    <i name="eentropy">     -0.00000000 </i>
    <i name="bandstr">   -449.30715386 </i>
    <i name="atom">   3805.83765485 </i>
    <i name="e_fr_energy">    -55.77198522 </i>
    <i name="e_wo_entrp">    -55.77198522 </i>
    <i name="e_0_energy">    -55.77198522 </i>
   </energy>
  </scstep>
  <scstep>
   <time name="total">    2.32    2.35</time>
   <energy>
    <i name="e_fr_energy">    -55.85618751 </i>
    <i name="e_wo_entrp">    -55.85618751 </i>
    <i name="e_0_energy">    -55.85618751 </i>
   </energy>
  </scstep>
  <scstep>
   <time name="total">    1.95    1.99</time>
   <energy>
    <i name="e_fr_energy">    -55.86230966 </i>
    <i name="e_wo_entrp">    -55.86230966 </i>
    <i name="e_0_energy">    -55.86230966 </i>
   </energy>
  </scstep>
  <scstep>
   <time name="total">    2.27    2.30</time>
   <energy>
    <i name="e_fr_energy">    -55.87224980 </i>
    <i name="e_wo_entrp">    -55.87224980 </i>
    <i name="e_0_energy">    -55.87224980 </i>
   </energy>
  </scstep>
  <scstep>
   <time name="total">    2.25    2.29</time>
   <energy>
    <i name="e_fr_energy">    -55.87233838 </i>
    <i name="e_wo_entrp">    -55.87233838 </i>
    <i name="e_0_energy">    -55.87233838 </i>
   </energy>
  </scstep>
  <scstep>
   <time name="total">    2.25    2.29</time>
   <energy>
    <i name="e_fr_energy">    -55.87386123 </i>
    <i name="e_wo_entrp">    -55.87386123 </i>
    <i name="e_0_energy">    -55.87386123 </i>
   </energy>
  </scstep>
  <scstep>
   <time name="total">    2.28    2.32</time>
   <energy>
    <i name="e_fr_energy">    -55.87396766 </i>
    <i name="e_wo_entrp">    -55.87396766 </i>
    <i name="e_0_energy">    -55.87396766 </i>
   </energy>
  </scstep>
  <scstep>
   <time name="total">    2.26    2.30</time>
   <energy>
    <i name="e_fr_energy">    -55.87419497 </i>
    <i name="e_wo_entrp">    -55.87419497 </i>
    <i name="e_0_energy">    -55.87419497 </i>
   </energy>
  </scstep>
  <scstep>
   <time name="total">    2.26    2.30</time>
   <energy>
    <i name="e_fr_energy">    -55.87424059 </i>
    <i name="e_wo_entrp">    -55.87424059 </i>
    <i name="e_0_energy">    -55.87424059 </i>
   </energy>
  </scstep>
  <scstep>
   <time name="total">    1.64    1.68</time>
   <energy>
    <i name="e_fr_energy">    -55.87425716 </i>
    <i name="e_wo_entrp">    -55.87425716 </i>
    <i name="e_0_energy">    -55.87425716 </i>
   </energy>
  </scstep>
  <scstep>
   <time name="total">    2.18    2.18</time>
   <energy>
    <i name="alphaZ">    215.67466744 </i>
    <i name="ewald">  -2918.00647687 </i>
    <i name="hartreedc">   -870.81529261 </i>
    <i name="XCdc">    185.98349679 </i>
    <i name="pawpsdc">   4826.90768858 </i>
    <i name="pawaedc">  -4842.66898656 </i>
    <i name="eentropy">     -0.00000000 </i>
    <i name="bandstr">   -458.78701796 </i>
    <i name="atom">   3805.83765485 </i>
    <i name="e_fr_energy">    -55.87426633 </i>
    <i name="e_wo_entrp">    -55.87426633 </i>
    <i name="e_0_energy">    -55.87426633 </i>
   </energy>
  </scstep>
  <structure>
   <crystal>
    <varray name="basis" >
     <v>       4.63263533      -0.00000000       0.00000000 </v>
     <v>       0.00000000       4.63263533       0.00000000 </v>
     <v>      -0.00000000      -0.00000000       2.95389602 </v>
    </varray>
    <i name="volume">     63.39447844 </i>
    <varray name="rec_basis" >
     <v>       0.21585986      -0.00000000       0.00000000 </v>
     <v>       0.00000000       0.21585986       0.00000000 </v>
     <v>      -0.00000000      -0.00000000       0.33853595 </v>
    </varray>
   </crystal>
   <varray name="positions" >
    <v>       0.50000000       0.50000000       0.50000000 </v>
    <v>       0.00000000       0.00000000       0.00000000 </v>
    <v>       0.19524585       0.80475415       0.50000000 </v>
    <v>       0.80475415       0.19524585       0.50000000 </v>
    <v>       0.30475415       0.30475415      -0.00000000 </v>
    <v>       0.69524585       0.69524585       0.00000000 </v>
   </varray>
  </structure>
  <varray name="forces" >
   <v>      -0.00000000      -0.00000000       0.00000000 </v>
   <v>      -0.00000000      -0.00000000       0.00000000 </v>
   <v>      -0.01434792       0.01434792      -0.00000000 </v>
   <v>       0.01434792      -0.01434792       0.00000000 </v>
   <v>       0.01434792       0.01434792       0.00000000 </v>
   <v>      -0.01434792      -0.01434792      -0.00000000 </v>
  </varray>
  <varray name="stress" >
   <v>     -39.92820368      -0.00000000      -0.00000000 </v>
   <v>      -0.00000000     -39.92820368      -0.00000000 </v>
   <v>      -0.00000000      -0.00000000     -40.14003459 </v>
  </varray>
  <energy>
   <i name="e_fr_energy">    -55.87426633 </i>
   <i name="e_wo_entrp">    -55.87426633 </i>
   <i name="e_0_energy">    -55.87426633 </i>
  </energy>
  <time name="totalsc">   24.49   24.87</time>
 </calculation>
 <calculation>
  <scstep>
   <time name="total">    1.96    1.96</time>
   <energy>
    <i name="alphaZ">    219.54745170 </i>
    <i name="ewald">  -2934.74206446 </i>
    <i name="hartreedc">   -876.38082498 </i>
    <i name="XCdc">    187.19739247 </i>
    <i name="pawpsdc">   4841.77206162 </i>
    <i name="pawaedc">  -4858.52594566 </i>
    <i name="eentropy">     -0.00000000 </i>
    <i name="bandstr">   -440.42887755 </i>
    <i name="atom">   3805.83765485 </i>
    <i name="e_fr_energy">    -55.72315199 </i>
    <i name="e_wo_entrp">    -55.72315199 </i>
    <i name="e_0_energy">    -55.72315199 </i>
   </energy>
  </scstep>
  <scstep>
   <time name="total">    2.27    2.31</time>
   <energy>
    <i name="e_fr_energy">    -55.85805943 </i>
    <i name="e_wo_entrp">    -55.85805943 </i>
    <i name="e_0_energy">    -55.85805943 </i>
   </energy>
  </scstep>
  <scstep>
   <time name="total">    1.95    1.98</time>
   <energy>
    <i name="e_fr_energy">    -55.86713532 </i>
    <i name="e_wo_entrp">    -55.86713532 </i>
    <i name="e_0_energy">    -55.86713532 </i>
   </energy>
  </scstep>
  <scstep>
   <time name="total">    2.28    2.32</time>
   <energy>
    <i name="e_fr_energy">    -55.88322880 </i>
    <i name="e_wo_entrp">    -55.88322880 </i>
    <i name="e_0_energy">    -55.88322880 </i>
   </energy>
  </scstep>
  <scstep>
   <time name="total">    2.26    2.31</time>
   <energy>
    <i name="e_fr_energy">    -55.88327792 </i>
    <i name="e_wo_entrp">    -55.88327792 </i>
    <i name="e_0_energy">    -55.88327792 </i>
   </energy>
  </scstep>
  <scstep>
   <time name="total">    2.27    2.31</time>
   <energy>
    <i name="e_fr_energy">    -55.88570154 </i>
    <i name="e_wo_entrp">    -55.88570154 </i>
    <i name="e_0_energy">    -55.88570154 </i>
   </energy>
  </scstep>
  <scstep>
   <time name="total">    2.27    2.31</time>
   <energy>
    <i name="e_fr_energy">    -55.88588555 </i>
    <i name="e_wo_entrp">    -55.88588555 </i>
    <i name="e_0_energy">    -55.88588555 </i>
   </energy>
  </scstep>
  <scstep>
   <time name="total">    2.32    2.32</time>
   <energy>
    <i name="e_fr_energy">    -55.88623664 </i>
    <i name="e_wo_entrp">    -55.88623664 </i>
    <i name="e_0_energy">    -55.88623664 </i>
   </energy>
  </scstep>
  <scstep>
   <time name="total">    2.30    2.34</time>
   <energy>
    <i name="e_fr_energy">    -55.88631379 </i>
    <i name="e_wo_entrp">    -55.88631379 </i>
    <i name="e_0_energy">    -55.88631379 </i>
   </energy>
  </scstep>
  <scstep>
   <time name="total">    1.63    1.67</time>
   <energy>
    <i name="e_fr_energy">    -55.88633815 </i>
    <i name="e_wo_entrp">    -55.88633815 </i>
    <i name="e_0_energy">    -55.88633815 </i>
   </energy>
  </scstep>
  <scstep>
   <time name="total">    2.29    2.32</time>
   <energy>
    <i name="e_fr_energy">    -55.88635333 </i>
    <i name="e_wo_entrp">    -55.88635333 </i>
    <i name="e_0_energy">    -55.88635333 </i>
   </energy>
  </scstep>
  <scstep>
   <time name="total">    1.81    1.85</time>
   <energy>
    <i name="alphaZ">    219.54745170 </i>
    <i name="ewald">  -2934.74206446 </i>
    <i name="hartreedc">   -864.44286360 </i>
    <i name="XCdc">    186.32264402 </i>
    <i name="pawpsdc">   4952.55215760 </i>
    <i name="pawaedc">  -4968.49750363 </i>
    <i name="eentropy">     -0.00000000 </i>
    <i name="bandstr">   -452.46383242 </i>
    <i name="atom">   3805.83765485 </i>
    <i name="e_fr_energy">    -55.88635593 </i>
    <i name="e_wo_entrp">    -55.88635593 </i>
    <i name="e_0_energy">    -55.88635593 </i>
   </energy>
  </scstep>
  <structure>
   <crystal>
    <varray name="basis" >
     <v>       4.60664868      -0.00000000       0.00000000 </v>
     <v>       0.00000000       4.60664868       0.00000000 </v>
     <v>      -0.00000000      -0.00000000       2.93462076 </v>
    </varray>
    <i name="volume">     62.27620931 </i>
    <varray name="rec_basis" >
     <v>       0.21707755      -0.00000000       0.00000000 </v>
     <v>       0.00000000       0.21707755       0.00000000 </v>
     <v>      -0.00000000      -0.00000000       0.34075953 </v>
    </varray>
   </crystal>
   <varray name="positions" >
    <v>       0.50000000       0.50000000       0.50000000 </v>
    <v>       0.00000000       0.00000000       0.00000000 </v>
    <v>       0.19502558       0.80497442       0.50000000 </v>
    <v>       0.80497442       0.19502558       0.50000000 </v>
    <v>       0.30497442       0.30497442       0.00000000 </v>
    <v>       0.69502558       0.69502558      -0.00000000 </v>
   </varray>
  </structure>
  <varray name="forces" >
   <v>       0.00000000       0.00000000      -0.00000000 </v>
   <v>       0.00000000       0.00000000      -0.00000000 </v>
   <v>       0.07526523      -0.07526523       0.00000000 </v>
   <v>      -0.07526523       0.07526523      -0.00000000 </v>
   <v>      -0.07526523      -0.07526523      -0.00000000 </v>
   <v>       0.07526523       0.07526523       0.00000000 </v>
  </varray>
  <varray name="stress" >
   <v>      -0.69866824       0.00000000       0.00000000 </v>
   <v>      -0.00000000      -0.69866824       0.00000000 </v>
   <v>       0.00000000       0.00000000      13.88758626 </v>
  </varray>
  <energy>
   <i name="e_fr_energy">    -55.88635593 </i>
   <i name="e_wo_entrp">    -55.88635593 </i>
   <i name="e_0_energy">    -55.88635593 </i>
  </energy>
  <time name="totalsc">   26.42   26.83</time>
 </calculation>
 <calculation>
  <scstep>
   <time name="total">    1.96    1.96</time>
   <energy>
    <i name="alphaZ">    219.07922213 </i>
    <i name="ewald">  -2932.73004372 </i>
    <i name="hartreedc">   -863.79704936 </i>
    <i name="XCdc">    186.17816601 </i>
    <i name="pawpsdc">   4950.43709753 </i>
    <i name="pawaedc">  -4966.26266442 </i>
    <i name="eentropy">     -0.00000000 </i>
    <i name="bandstr">   -454.62658878 </i>
    <i name="atom">   3805.83765485 </i>
    <i name="e_fr_energy">    -55.88420576 </i>
    <i name="e_wo_entrp">    -55.88420576 </i>
    <i name="e_0_energy">    -55.88420576 </i>
   </energy>
  </scstep>
  <scstep>
   <time name="total">    2.31    2.32</time>
   <energy>
    <i name="e_fr_energy">    -55.88620488 </i>
    <i name="e_wo_entrp">    -55.88620488 </i>
    <i name="e_0_energy">    -55.88620488 </i>
   </energy>
  </scstep>
  <scstep>
   <time name="total">    1.96    2.00</time>
   <energy>
    <i name="e_fr_energy">    -55.88633245 </i>
    <i name="e_wo_entrp">    -55.88633245 </i>
    <i name="e_0_energy">    -55.88633245 </i>
   </energy>
  </scstep>
  <scstep>
   <time name="total">    2.26    2.30</time>
   <energy>
    <i name="e_fr_energy">    -55.88656247 </i>
    <i name="e_wo_entrp">    -55.88656247 </i>
    <i name="e_0_energy">    -55.88656247 </i>
   </energy>
  </scstep>
  <scstep>
   <time name="total">    2.27    2.31</time>
   <energy>
    <i name="e_fr_energy">    -55.88656189 </i>
    <i name="e_wo_entrp">    -55.88656189 </i>
    <i name="e_0_energy">    -55.88656189 </i>
   </energy>
  </scstep>
  <scstep>
   <time name="total">    2.28    2.36</time>
   <energy>
    <i name="e_fr_energy">    -55.88659953 </i>
    <i name="e_wo_entrp">    -55.88659953 </i>
    <i name="e_0_energy">    -55.88659953 </i>
   </energy>
  </scstep>
  <scstep>
   <time name="total">    1.85    1.85</time>
   <energy>
    <i name="alphaZ">    219.07922213 </i>
    <i name="ewald">  -2932.73004372 </i>
    <i name="hartreedc">   -865.29664171 </i>
    <i name="XCdc">    186.28788646 </i>
    <i name="pawpsdc">   4936.59368005 </i>
    <i name="pawaedc">  -4952.51751686 </i>
    <i name="eentropy">     -0.00000000 </i>
    <i name="bandstr">   -453.14084354 </i>
    <i name="atom">   3805.83765485 </i>
    <i name="e_fr_energy">    -55.88660232 </i>
    <i name="e_wo_entrp">    -55.88660232 </i>
    <i name="e_0_energy">    -55.88660232 </i>
   </energy>
  </scstep>
  <structure>
   <crystal>
    <varray name="basis" >
     <v>       4.60975789      -0.00000000       0.00000000 </v>
     <v>       0.00000000       4.60975789       0.00000000 </v>
     <v>      -0.00000000      -0.00000000       2.93692697 </v>
    </varray>
    <i name="volume">     62.40930985 </i>
    <varray name="rec_basis" >
     <v>       0.21693113      -0.00000000       0.00000000 </v>
     <v>       0.00000000       0.21693113       0.00000000 </v>
     <v>      -0.00000000      -0.00000000       0.34049195 </v>
    </varray>
   </crystal>
   <varray name="positions" >
    <v>       0.50000000       0.50000000       0.50000000 </v>
    <v>       0.00000000       0.00000000       0.00000000 </v>
    <v>       0.19505208       0.80494792       0.50000000 </v>
    <v>       0.80494792       0.19505208       0.50000000 </v>
    <v>       0.30494792       0.30494792       0.00000000 </v>
    <v>       0.69505208       0.69505208      -0.00000000 </v>
   </varray>
  </structure>
  <varray name="forces" >
   <v>       0.00000000      -0.00000000      -0.00000000 </v>
   <v>       0.00000000       0.00000000      -0.00000000 </v>
   <v>       0.06440348      -0.06440348       0.00000000 </v>
   <v>      -0.06440348       0.06440348      -0.00000000 </v>
   <v>      -0.06440348      -0.06440348      -0.00000000 </v>
   <v>       0.06440348       0.06440348       0.00000000 </v>
  </varray>
  <varray name="stress" >
   <v>      -4.37449555      -0.00000000       0.00000000 </v>
   <v>      -0.00000000      -4.37449555       0.00000000 </v>
   <v>       0.00000000       0.00000000       8.20118711 </v>
  </varray>
  <energy>
   <i name="e_fr_energy">    -55.88660232 </i>
   <i name="e_wo_entrp">    -55.88660232 </i>
   <i name="e_0_energy">    -55.88660232 </i>
  </energy>
  <time name="totalsc">   15.72   15.93</time>
 </calculation>
 <calculation>
  <scstep>
   <time name="total">    1.94    1.94</time>
   <energy>
    <i name="alphaZ">    218.97738727 </i>
    <i name="ewald">  -2932.29204336 </i>
    <i name="hartreedc">   -865.10561777 </i>
    <i name="XCdc">    186.25375451 </i>
    <i name="pawpsdc">   4936.22209515 </i>
    <i name="pawaedc">  -4952.12089632 </i>
    <i name="eentropy">     -0.00000000 </i>
    <i name="bandstr">   -453.65883544 </i>
    <i name="atom">   3805.83765485 </i>
    <i name="e_fr_energy">    -55.88650110 </i>
    <i name="e_wo_entrp">    -55.88650110 </i>
    <i name="e_0_energy">    -55.88650110 </i>
   </energy>
  </scstep>
  <scstep>
   <time name="total">    1.97    1.97</time>
   <energy>
    <i name="e_fr_energy">    -55.88658454 </i>
    <i name="e_wo_entrp">    -55.88658454 </i>
    <i name="e_0_energy">    -55.88658454 </i>
   </energy>
  </scstep>
  <scstep>
   <time name="total">    1.63    1.67</time>
   <energy>
    <i name="e_fr_energy">    -55.88659092 </i>
    <i name="e_wo_entrp">    -55.88659092 </i>
    <i name="e_0_energy">    -55.88659092 </i>
   </energy>
  </scstep>
  <scstep>
   <time name="total">    2.14    2.17</time>
   <energy>
    <i name="alphaZ">    218.97738727 </i>
    <i name="ewald">  -2932.29204336 </i>
    <i name="hartreedc">   -865.39446899 </i>
    <i name="XCdc">    186.27454269 </i>
    <i name="pawpsdc">   4932.96395330 </i>
    <i name="pawaedc">  -4948.88406735 </i>
    <i name="eentropy">     -0.00000000 </i>
    <i name="bandstr">   -453.36955683 </i>
    <i name="atom">   3805.83765485 </i>
    <i name="e_fr_energy">    -55.88659841 </i>
    <i name="e_wo_entrp">    -55.88659841 </i>
    <i name="e_0_energy">    -55.88659841 </i>
   </energy>
  </scstep>
  <structure>
   <crystal>
    <varray name="basis" >
     <v>       4.61043528      -0.00000000       0.00000000 </v>
     <v>       0.00000000       4.61043528       0.00000000 </v>
     <v>      -0.00000000      -0.00000000       2.93742942 </v>
    </varray>
    <i name="volume">     62.43833314 </i>
    <varray name="rec_basis" >
     <v>       0.21689926      -0.00000000       0.00000000 </v>
     <v>       0.00000000       0.21689926       0.00000000 </v>
     <v>      -0.00000000      -0.00000000       0.34043371 </v>
    </varray>
   </crystal>
   <varray name="positions" >
    <v>       0.50000000       0.50000000       0.50000000 </v>
    <v>       0.00000000       0.00000000       0.00000000 </v>
    <v>       0.19505785       0.80494215       0.50000000 </v>
    <v>       0.80494215       0.19505785       0.50000000 </v>
    <v>       0.30494215       0.30494215       0.00000000 </v>
    <v>       0.69505785       0.69505785      -0.00000000 </v>
   </varray>
  </structure>
  <varray name="forces" >
   <v>      -0.00000000       0.00000000       0.00000000 </v>
   <v>       0.00000000       0.00000000       0.00000000 </v>
   <v>       0.06008262      -0.06008262       0.00000000 </v>
   <v>      -0.06008262       0.06008262      -0.00000000 </v>
   <v>      -0.06008262      -0.06008262      -0.00000000 </v>
   <v>       0.06008262       0.06008262       0.00000000 </v>
  </varray>
  <varray name="stress" >
   <v>      -7.02031854      -0.00000000      -0.00000000 </v>
   <v>       0.00000000      -7.02031854      -0.00000000 </v>
   <v>      -0.00000000      -0.00000000       5.34378622 </v>
  </varray>
  <energy>
   <i name="e_fr_energy">    -55.88659841 </i>
   <i name="e_wo_entrp">    -55.88659841 </i>
   <i name="e_0_energy">    -55.88659841 </i>
  </energy>
  <time name="totalsc">    8.50    8.59</time>
 </calculation>
 <calculation>
  <scstep>
   <time name="total">    1.95    1.96</time>
   <energy>
    <i name="alphaZ">    219.04208091 </i>
    <i name="ewald">  -2932.57031368 </i>
    <i name="hartreedc">   -865.46092652 </i>
    <i name="XCdc">    186.29285733 </i>
    <i name="pawpsdc">   4933.65682016 </i>
    <i name="pawaedc">  -4949.59241251 </i>
    <i name="eentropy">     -0.00000000 </i>
    <i name="bandstr">   -453.09233069 </i>
    <i name="atom">   3805.83765485 </i>
    <i name="e_fr_energy">    -55.88657014 </i>
    <i name="e_wo_entrp">    -55.88657014 </i>
    <i name="e_0_energy">    -55.88657014 </i>
   </energy>
  </scstep>
  <scstep>
   <time name="total">    2.28    2.29</time>
   <energy>
    <i name="e_fr_energy">    -55.88660073 </i>
    <i name="e_wo_entrp">    -55.88660073 </i>
    <i name="e_0_energy">    -55.88660073 </i>
   </energy>
  </scstep>
  <scstep>
   <time name="total">    1.82    1.86</time>
   <energy>
    <i name="alphaZ">    219.04208091 </i>
    <i name="ewald">  -2932.57031368 </i>
    <i name="hartreedc">   -865.23240655 </i>
    <i name="XCdc">    186.27591827 </i>
    <i name="pawpsdc">   4936.00017802 </i>
    <i name="pawaedc">  -4951.92025023 </i>
    <i name="eentropy">     -0.00000000 </i>
    <i name="bandstr">   -453.31946554 </i>
    <i name="atom">   3805.83765485 </i>
    <i name="e_fr_energy">    -55.88660395 </i>
    <i name="e_wo_entrp">    -55.88660395 </i>
    <i name="e_0_energy">    -55.88660395 </i>
   </energy>
  </scstep>
  <structure>
   <crystal>
    <varray name="basis" >
     <v>       4.61000490      -0.00000000       0.00000000 </v>
     <v>       0.00000000       4.61000490       0.00000000 </v>
     <v>      -0.00000000      -0.00000000       2.93711019 </v>
    </varray>
    <i name="volume">     62.41989210 </i>
    <varray name="rec_basis" >
     <v>       0.21691951      -0.00000000       0.00000000 </v>
     <v>       0.00000000       0.21691951       0.00000000 </v>
     <v>      -0.00000000      -0.00000000       0.34047071 </v>
    </varray>
   </crystal>
   <varray name="positions" >
    <v>       0.50000000       0.50000000       0.50000000 </v>
    <v>       0.00000000       0.00000000       0.00000000 </v>
    <v>       0.19505419       0.80494581       0.50000000 </v>
    <v>       0.80494581       0.19505419       0.50000000 </v>
    <v>       0.30494581       0.30494581       0.00000000 </v>
    <v>       0.69505419       0.69505419      -0.00000000 </v>
   </varray>
  </structure>
  <varray name="forces" >
   <v>      -0.00000000      -0.00000000      -0.00000000 </v>
   <v>      -0.00000000      -0.00000000      -0.00000000 </v>
   <v>       0.05864538      -0.05864538       0.00000000 </v>
   <v>      -0.05864538       0.05864538      -0.00000000 </v>
   <v>      -0.05864538      -0.05864538      -0.00000000 </v>
   <v>       0.05864538       0.05864538       0.00000000 </v>
  </varray>
  <varray name="stress" >
   <v>      -5.44976385      -0.00000000       0.00000000 </v>
   <v>      -0.00000000      -5.44976385       0.00000000 </v>
   <v>      -0.00000000      -0.00000000       6.66570066 </v>
  </varray>
  <energy>
   <i name="e_fr_energy">    -55.88660395 </i>
   <i name="e_wo_entrp">    -55.88660395 </i>
   <i name="e_0_energy">    -55.88660395 </i>
  </energy>
  <time name="totalsc">    6.87    6.93</time>
 </calculation>
 <calculation>
  <scstep>
   <time name="total">    1.63    1.64</time>
   <energy>
    <i name="alphaZ">    219.05058549 </i>
    <i name="ewald">  -2932.60689054 </i>
    <i name="hartreedc">   -865.31021846 </i>
    <i name="XCdc">    186.28327366 </i>
    <i name="pawpsdc">   4935.73722122 </i>
    <i name="pawaedc">  -4951.65905133 </i>
    <i name="eentropy">     -0.00000000 </i>
    <i name="bandstr">   -453.21918230 </i>
    <i name="atom">   3805.83765485 </i>
    <i name="e_fr_energy">    -55.88660742 </i>
    <i name="e_wo_entrp">    -55.88660742 </i>
    <i name="e_0_energy">    -55.88660742 </i>
   </energy>
  </scstep>
  <scstep>
   <time name="total">    1.81    1.85</time>
   <energy>
    <i name="alphaZ">    219.05058549 </i>
    <i name="ewald">  -2932.60689054 </i>
    <i name="hartreedc">   -865.26584098 </i>
    <i name="XCdc">    186.28042145 </i>
    <i name="pawpsdc">   4935.84679844 </i>
    <i name="pawaedc">  -4951.76924828 </i>
    <i name="eentropy">     -0.00000000 </i>
    <i name="bandstr">   -453.26008849 </i>
    <i name="atom">   3805.83765485 </i>
    <i name="e_fr_energy">    -55.88660806 </i>
    <i name="e_wo_entrp">    -55.88660806 </i>
    <i name="e_0_energy">    -55.88660806 </i>
   </energy>
  </scstep>
  <structure>
   <crystal>
    <varray name="basis" >
     <v>       4.60994833      -0.00000000       0.00000000 </v>
     <v>       0.00000000       4.60994833       0.00000000 </v>
     <v>      -0.00000000      -0.00000000       2.93706823 </v>
    </varray>
    <i name="volume">     62.41746866 </i>
    <varray name="rec_basis" >
     <v>       0.21692217      -0.00000000       0.00000000 </v>
     <v>       0.00000000       0.21692217       0.00000000 </v>
     <v>      -0.00000000      -0.00000000       0.34047558 </v>
    </varray>
   </crystal>
   <varray name="positions" >
    <v>       0.50000000       0.50000000       0.50000000 </v>
    <v>       0.00000000       0.00000000       0.00000000 </v>
    <v>       0.19505371       0.80494629       0.50000000 </v>
    <v>       0.80494629       0.19505371       0.50000000 </v>
    <v>       0.30494629       0.30494629       0.00000000 </v>
    <v>       0.69505371       0.69505371      -0.00000000 </v>
   </varray>
  </structure>
  <varray name="forces" >
   <v>       0.00000000       0.00000000      -0.00000000 </v>
   <v>      -0.00000000       0.00000000      -0.00000000 </v>
   <v>       0.06142502      -0.06142502       0.00000000 </v>
   <v>      -0.06142502       0.06142502      -0.00000000 </v>
   <v>      -0.06142502      -0.06142502      -0.00000000 </v>
   <v>       0.06142502       0.06142502       0.00000000 </v>
  </varray>
  <varray name="stress" >
   <v>      -5.72612329      -0.00000000      -0.00000000 </v>
   <v>       0.00000000      -5.72612329      -0.00000000 </v>
   <v>      -0.00000000      -0.00000000       6.77279560 </v>
  </varray>
  <energy>
   <i name="e_fr_energy">    -55.88660806 </i>
   <i name="e_wo_entrp">    -55.88660806 </i>
   <i name="e_0_energy">    -55.88660806 </i>
  </energy>
  <time name="totalsc">    4.27    4.32</time>
 </calculation>
 <calculation>
  <scstep>
   <time name="total">    1.62    1.62</time>
   <energy>
    <i name="alphaZ">    219.06490319 </i>
    <i name="ewald">  -2932.66846637 </i>
    <i name="hartreedc">   -865.29334261 </i>
    <i name="XCdc">    186.28457008 </i>
    <i name="pawpsdc">   4935.77771851 </i>
    <i name="pawaedc">  -4951.70292132 </i>
    <i name="eentropy">     -0.00000000 </i>
    <i name="bandstr">   -453.18672365 </i>
    <i name="atom">   3805.83765485 </i>
    <i name="e_fr_energy">    -55.88660732 </i>
    <i name="e_wo_entrp">    -55.88660732 </i>
    <i name="e_0_energy">    -55.88660732 </i>
   </energy>
  </scstep>
  <scstep>
   <time name="total">    1.84    1.84</time>
   <energy>
    <i name="alphaZ">    219.06490319 </i>
    <i name="ewald">  -2932.66846637 </i>
    <i name="hartreedc">   -865.25765908 </i>
    <i name="XCdc">    186.28221394 </i>
    <i name="pawpsdc">   4936.23849337 </i>
    <i name="pawaedc">  -4952.16005905 </i>
    <i name="eentropy">     -0.00000000 </i>
    <i name="bandstr">   -453.22368914 </i>
    <i name="atom">   3805.83765485 </i>
    <i name="e_fr_energy">    -55.88660829 </i>
    <i name="e_wo_entrp">    -55.88660829 </i>
    <i name="e_0_energy">    -55.88660829 </i>
   </energy>
  </scstep>
  <structure>
   <crystal>
    <varray name="basis" >
     <v>       4.60985311      -0.00000000       0.00000000 </v>
     <v>       0.00000000       4.60985311       0.00000000 </v>
     <v>      -0.00000000      -0.00000000       2.93699760 </v>
    </varray>
    <i name="volume">     62.41338917 </i>
    <varray name="rec_basis" >
     <v>       0.21692665      -0.00000000       0.00000000 </v>
     <v>       0.00000000       0.21692665       0.00000000 </v>
     <v>      -0.00000000      -0.00000000       0.34048376 </v>
    </varray>
   </crystal>
   <varray name="positions" >
    <v>       0.50000000       0.50000000       0.50000000 </v>
    <v>       0.00000000       0.00000000       0.00000000 </v>
    <v>       0.19505290       0.80494710       0.50000000 </v>
    <v>       0.80494710       0.19505290       0.50000000 </v>
    <v>       0.30494710       0.30494710       0.00000000 </v>
    <v>       0.69505290       0.69505290      -0.00000000 </v>
   </varray>
  </structure>
  <varray name="forces" >
   <v>      -0.00000000       0.00000000       0.00000000 </v>
   <v>      -0.00000000      -0.00000000       0.00000000 </v>
   <v>       0.06130029      -0.06130029       0.00000000 </v>
   <v>      -0.06130029       0.06130029      -0.00000000 </v>
   <v>      -0.06130029      -0.06130029      -0.00000000 </v>
   <v>       0.06130029       0.06130029       0.00000000 </v>
  </varray>
  <varray name="stress" >
   <v>      -5.59734936       0.00000000      -0.00000000 </v>
   <v>       0.00000000      -5.59734936      -0.00000000 </v>
   <v>      -0.00000000      -0.00000000       6.85788579 </v>
  </varray>
  <energy>
   <i name="e_fr_energy">    -55.88660829 </i>
   <i name="e_wo_entrp">    -55.88660829 </i>
   <i name="e_0_energy">    -55.88660829 </i>
  </energy>
  <time name="totalsc">    4.29    4.30</time>
 </calculation>
 <calculation>
  <scstep>
   <time name="total">    1.96    1.96</time>
   <energy>
    <i name="alphaZ">    219.07206250 </i>
    <i name="ewald">  -2932.69925522 </i>
    <i name="hartreedc">   -865.26016687 </i>
    <i name="XCdc">    186.28440995 </i>
    <i name="pawpsdc">   4936.45065418 </i>
    <i name="pawaedc">  -4952.37398713 </i>
    <i name="eentropy">     -0.00000000 </i>
    <i name="bandstr">   -453.19798026 </i>
    <i name="atom">   3805.83765485 </i>
    <i name="e_fr_energy">    -55.88660800 </i>
    <i name="e_wo_entrp">    -55.88660800 </i>
    <i name="e_0_energy">    -55.88660800 </i>
   </energy>
  </scstep>
  <scstep>
   <time name="total">    1.89    1.89</time>
   <energy>
    <i name="alphaZ">    219.07206250 </i>
    <i name="ewald">  -2932.69925522 </i>
    <i name="hartreedc">   -865.24305928 </i>
    <i name="XCdc">    186.28266488 </i>
    <i name="pawpsdc">   4936.44560105 </i>
    <i name="pawaedc">  -4952.36904457 </i>
    <i name="eentropy">     -0.00000000 </i>
    <i name="bandstr">   -453.21323281 </i>
    <i name="atom">   3805.83765485 </i>
    <i name="e_fr_energy">    -55.88660860 </i>
    <i name="e_wo_entrp">    -55.88660860 </i>
    <i name="e_0_energy">    -55.88660860 </i>
   </energy>
  </scstep>
  <structure>
   <crystal>
    <varray name="basis" >
     <v>       4.60980550      -0.00000000       0.00000000 </v>
     <v>       0.00000000       4.60980550       0.00000000 </v>
     <v>      -0.00000000      -0.00000000       2.93696229 </v>
    </varray>
    <i name="volume">     62.41134949 </i>
    <varray name="rec_basis" >
     <v>       0.21692889      -0.00000000       0.00000000 </v>
     <v>       0.00000000       0.21692889       0.00000000 </v>
     <v>      -0.00000000      -0.00000000       0.34048786 </v>
    </varray>
   </crystal>
   <varray name="positions" >
    <v>       0.50000000       0.50000000       0.50000000 </v>
    <v>       0.00000000       0.00000000       0.00000000 </v>
    <v>       0.19505249       0.80494751       0.50000000 </v>
    <v>       0.80494751       0.19505249       0.50000000 </v>
    <v>       0.30494751       0.30494751       0.00000000 </v>
    <v>       0.69505249       0.69505249      -0.00000000 </v>
   </varray>
  </structure>
  <varray name="forces" >
   <v>      -0.00000000       0.00000000      -0.00000000 </v>
   <v>      -0.00000000       0.00000000      -0.00000000 </v>
   <v>       0.06156407      -0.06156407       0.00000000 </v>
   <v>      -0.06156407       0.06156407      -0.00000000 </v>
   <v>      -0.06156407      -0.06156407      -0.00000000 </v>
   <v>       0.06156407       0.06156407       0.00000000 </v>
  </varray>
  <varray name="stress" >
   <v>      -5.28236429      -0.00000000       0.00000000 </v>
   <v>      -0.00000000      -5.28236429       0.00000000 </v>
   <v>       0.00000000       0.00000000       7.24160474 </v>
  </varray>
  <energy>
   <i name="e_fr_energy">    -55.88660860 </i>
   <i name="e_wo_entrp">    -55.88660860 </i>
   <i name="e_0_energy">    -55.88660860 </i>
  </energy>
  <time name="totalsc">    4.67    4.68</time>
 </calculation>
 <calculation>
  <scstep>
   <time name="total">    1.93    1.94</time>
   <energy>
    <i name="alphaZ">    219.18070221 </i>
    <i name="ewald">  -2933.71150330 </i>
    <i name="hartreedc">   -865.05188981 </i>
    <i name="XCdc">    186.31626856 </i>
    <i name="pawpsdc">   4935.85212162 </i>
    <i name="pawaedc">  -4951.81302424 </i>
    <i name="eentropy">     -0.00000000 </i>
    <i name="bandstr">   -452.49378322 </i>
    <i name="atom">   3805.83765485 </i>
    <i name="e_fr_energy">    -55.88345333 </i>
    <i name="e_wo_entrp">    -55.88345333 </i>
    <i name="e_0_energy">    -55.88345333 </i>
   </energy>
  </scstep>
  <scstep>
   <time name="total">    2.24    2.28</time>
   <energy>
    <i name="e_fr_energy">    -55.88597319 </i>
    <i name="e_wo_entrp">    -55.88597319 </i>
    <i name="e_0_energy">    -55.88597319 </i>
   </energy>
  </scstep>
  <scstep>
   <time name="total">    2.26    2.30</time>
   <energy>
    <i name="e_fr_energy">    -55.88691222 </i>
    <i name="e_wo_entrp">    -55.88691222 </i>
    <i name="e_0_energy">    -55.88691222 </i>
   </energy>
  </scstep>
  <scstep>
   <time name="total">    2.27    2.35</time>
   <energy>
    <i name="e_fr_energy">    -55.88715682 </i>
    <i name="e_wo_entrp">    -55.88715682 </i>
    <i name="e_0_energy">    -55.88715682 </i>
   </energy>
  </scstep>
  <scstep>
   <time name="total">    1.67    1.71</time>
   <energy>
    <i name="e_fr_energy">    -55.88718313 </i>
    <i name="e_wo_entrp">    -55.88718313 </i>
    <i name="e_0_energy">    -55.88718313 </i>
   </energy>
  </scstep>
  <scstep>
   <time name="total">    1.64    1.69</time>
   <energy>
    <i name="e_fr_energy">    -55.88718693 </i>
    <i name="e_wo_entrp">    -55.88718693 </i>
    <i name="e_0_energy">    -55.88718693 </i>
   </energy>
  </scstep>
  <scstep>
   <time name="total">    1.64    1.69</time>
   <energy>
    <i name="e_fr_energy">    -55.88719889 </i>
    <i name="e_wo_entrp">    -55.88719889 </i>
    <i name="e_0_energy">    -55.88719889 </i>
   </energy>
  </scstep>
  <scstep>
   <time name="total">    1.91    1.91</time>
   <energy>
    <i name="alphaZ">    219.18070221 </i>
    <i name="ewald">  -2933.71150330 </i>
    <i name="hartreedc">   -864.55404565 </i>
    <i name="XCdc">    186.28615242 </i>
    <i name="pawpsdc">   4936.58760947 </i>
    <i name="pawaedc">  -4952.51131110 </i>
    <i name="eentropy">     -0.00000000 </i>
    <i name="bandstr">   -453.00246558 </i>
    <i name="atom">   3805.83765485 </i>
    <i name="e_fr_energy">    -55.88720668 </i>
    <i name="e_wo_entrp">    -55.88720668 </i>
    <i name="e_0_energy">    -55.88720668 </i>
   </energy>
  </scstep>
  <structure>
   <crystal>
    <varray name="basis" >
     <v>       4.60759101      -0.00000000       0.00000000 </v>
     <v>       0.00000000       4.60759101       0.00000000 </v>
     <v>      -0.00000000      -0.00000000       2.93832893 </v>
    </varray>
    <i name="volume">     62.38041451 </i>
    <varray name="rec_basis" >
     <v>       0.21703315      -0.00000000       0.00000000 </v>
     <v>       0.00000000       0.21703315       0.00000000 </v>
     <v>      -0.00000000      -0.00000000       0.34032949 </v>
    </varray>
   </crystal>
   <varray name="positions" >
    <v>       0.50000000       0.50000000       0.50000000 </v>
    <v>      -0.00000000       0.00000000       0.00000000 </v>
    <v>       0.19520683       0.80479317       0.50000000 </v>
    <v>       0.80479317       0.19520683       0.50000000 </v>
    <v>       0.30479317       0.30479317       0.00000000 </v>
    <v>       0.69520683       0.69520683      -0.00000000 </v>
   </varray>
  </structure>
  <varray name="forces" >
   <v>      -0.00000000       0.00000000       0.00000000 </v>
   <v>       0.00000000       0.00000000       0.00000000 </v>
   <v>       0.05670410      -0.05670410       0.00000000 </v>
   <v>      -0.05670410       0.05670410      -0.00000000 </v>
   <v>      -0.05670410      -0.05670410      -0.00000000 </v>
   <v>       0.05670410       0.05670410       0.00000000 </v>
  </varray>
  <varray name="stress" >
   <v>      -3.99843767       0.00000000       0.00000000 </v>
   <v>      -0.00000000      -3.99843767       0.00000000 </v>
   <v>       0.00000000       0.00000000       6.10599850 </v>
  </varray>
  <energy>
   <i name="e_fr_energy">    -55.88720668 </i>
   <i name="e_wo_entrp">    -55.88720668 </i>
   <i name="e_0_energy">    -55.88720668 </i>
  </energy>
  <time name="totalsc">   16.39   16.70</time>
 </calculation>
 <calculation>
  <scstep>
   <time name="total">    2.17    2.18</time>
   <energy>
    <i name="alphaZ">    219.50783828 </i>
    <i name="ewald">  -2936.72308892 </i>
    <i name="hartreedc">   -864.01147871 </i>
    <i name="XCdc">    186.38673250 </i>
    <i name="pawpsdc">   4934.56454332 </i>
    <i name="pawaedc">  -4950.59937805 </i>
    <i name="eentropy">     -0.00000000 </i>
    <i name="bandstr">   -450.81727920 </i>
    <i name="atom">   3805.83765485 </i>
    <i name="e_fr_energy">    -55.85445591 </i>
    <i name="e_wo_entrp">    -55.85445591 </i>
    <i name="e_0_energy">    -55.85445591 </i>
   </energy>
  </scstep>
  <scstep>
   <time name="total">    2.29    2.33</time>
   <energy>
    <i name="e_fr_energy">    -55.87708675 </i>
    <i name="e_wo_entrp">    -55.87708675 </i>
    <i name="e_0_energy">    -55.87708675 </i>
   </energy>
  </scstep>
  <scstep>
   <time name="total">    2.26    2.31</time>
   <energy>
    <i name="e_fr_energy">    -55.88550241 </i>
    <i name="e_wo_entrp">    -55.88550241 </i>
    <i name="e_0_energy">    -55.88550241 </i>
   </energy>
  </scstep>
  <scstep>
   <time name="total">    2.34    2.36</time>
   <energy>
    <i name="e_fr_energy">    -55.88768322 </i>
    <i name="e_wo_entrp">    -55.88768322 </i>
    <i name="e_0_energy">    -55.88768322 </i>
   </energy>
  </scstep>
  <scstep>
   <time name="total">    2.27    2.34</time>
   <energy>
    <i name="e_fr_energy">    -55.88791815 </i>
    <i name="e_wo_entrp">    -55.88791815 </i>
    <i name="e_0_energy">    -55.88791815 </i>
   </energy>
  </scstep>
  <scstep>
   <time name="total">    2.28    2.32</time>
   <energy>
    <i name="e_fr_energy">    -55.88795608 </i>
    <i name="e_wo_entrp">    -55.88795608 </i>
    <i name="e_0_energy">    -55.88795608 </i>
   </energy>
  </scstep>
  <scstep>
   <time name="total">    1.95    2.00</time>
   <energy>
    <i name="e_fr_energy">    -55.88806447 </i>
    <i name="e_wo_entrp">    -55.88806447 </i>
    <i name="e_0_energy">    -55.88806447 </i>
   </energy>
  </scstep>
  <scstep>
   <time name="total">    1.66    1.67</time>
   <energy>
    <i name="e_fr_energy">    -55.88813342 </i>
    <i name="e_wo_entrp">    -55.88813342 </i>
    <i name="e_0_energy">    -55.88813342 </i>
   </energy>
  </scstep>
  <scstep>
   <time name="total">    1.69    1.73</time>
   <energy>
    <i name="e_fr_energy">    -55.88815406 </i>
    <i name="e_wo_entrp">    -55.88815406 </i>
    <i name="e_0_energy">    -55.88815406 </i>
   </energy>
  </scstep>
  <scstep>
   <time name="total">    1.88    1.90</time>
   <energy>
    <i name="alphaZ">    219.50783828 </i>
    <i name="ewald">  -2936.72308892 </i>
    <i name="hartreedc">   -862.51256441 </i>
    <i name="XCdc">    186.29609205 </i>
    <i name="pawpsdc">   4936.61233251 </i>
    <i name="pawaedc">  -4952.54324660 </i>
    <i name="eentropy">     -0.00000000 </i>
    <i name="bandstr">   -452.36317768 </i>
    <i name="atom">   3805.83765485 </i>
    <i name="e_fr_energy">    -55.88815993 </i>
    <i name="e_wo_entrp">    -55.88815993 </i>
    <i name="e_0_energy">    -55.88815993 </i>
   </energy>
  </scstep>
  <structure>
   <crystal>
    <varray name="basis" >
     <v>       4.60094756      -0.00000000       0.00000000 </v>
     <v>       0.00000000       4.60094756       0.00000000 </v>
     <v>      -0.00000000      -0.00000000       2.94242885 </v>
    </varray>
    <i name="volume">     62.28744797 </i>
    <varray name="rec_basis" >
     <v>       0.21734653      -0.00000000       0.00000000 </v>
     <v>       0.00000000       0.21734653       0.00000000 </v>
     <v>      -0.00000000      -0.00000000       0.33985529 </v>
    </varray>
   </crystal>
   <varray name="positions" >
    <v>       0.50000000       0.50000000       0.50000000 </v>
    <v>      -0.00000000       0.00000000       0.00000000 </v>
    <v>       0.19567008       0.80432992       0.50000000 </v>
    <v>       0.80432992       0.19567008       0.50000000 </v>
    <v>       0.30432992       0.30432992       0.00000000 </v>
    <v>       0.69567008       0.69567008      -0.00000000 </v>
   </varray>
  </structure>
  <varray name="forces" >
   <v>      -0.00000000      -0.00000000      -0.00000000 </v>
   <v>      -0.00000000       0.00000000      -0.00000000 </v>
   <v>      -0.00629768       0.00629768      -0.00000000 </v>
   <v>       0.00629768      -0.00629768       0.00000000 </v>
   <v>       0.00629768       0.00629768       0.00000000 </v>
   <v>      -0.00629768      -0.00629768      -0.00000000 </v>
  </varray>
  <varray name="stress" >
   <v>      -0.69828959      -0.00000000       0.00000000 </v>
   <v>      -0.00000000      -0.69828959       0.00000000 </v>
   <v>       0.00000000       0.00000000       1.13622760 </v>
  </varray>
  <energy>
   <i name="e_fr_energy">    -55.88815993 </i>
   <i name="e_wo_entrp">    -55.88815993 </i>
   <i name="e_0_energy">    -55.88815993 </i>
  </energy>
  <time name="totalsc">   24.35   24.73</time>
  <eigenvalues>
   <array>
    <dimension dim="1">band</dimension>
    <dimension dim="2">kpoint</dimension>
    <dimension dim="3">spin</dimension>
    <field>eigene</field>
    <field>occ</field>
    <set>
     <set comment="spin 1">
      <set comment="kpoint 1">
       <r>  -29.7168    1.0000 </r>
       <r>  -29.7168    1.0000 </r>
       <r>  -29.5479    1.0000 </r>
       <r>  -29.5479    1.0000 </r>
       <r>  -29.5078    1.0000 </r>
       <r>  -29.4739    1.0000 </r>
       <r>  -14.7941    1.0000 </r>
       <r>  -13.5708    1.0000 </r>
       <r>  -12.8058    1.0000 </r>
       <r>  -12.8058    1.0000 </r>
       <r>   -2.4650    1.0000 </r>
       <r>   -2.0132    1.0000 </r>
       <r>   -1.6261    1.0000 </r>
       <r>   -0.4339    1.0000 </r>
       <r>   -0.4339    1.0000 </r>
       <r>    0.7898    1.0000 </r>
       <r>    0.7898    1.0000 </r>
       <r>    1.4425    1.0000 </r>
       <r>    2.7313    1.0000 </r>
       <r>    2.9568    1.0000 </r>
       <r>    2.9568    1.0000 </r>
       <r>    3.3887    1.0000 </r>
       <r>    5.1902    0.0000 </r>
       <r>    5.4639    0.0000 </r>
       <r>    5.7656    0.0000 </r>
       <r>    5.8591    0.0000 </r>
       <r>    5.8591    0.0000 </r>
       <r>    7.7941    0.0000 </r>
       <r>    7.9742    0.0000 </r>
       <r>   10.0374    0.0000 </r>
       <r>   10.0458    0.0000 </r>
       <r>   11.0814    0.0000 </r>
      </set>
      <set comment="kpoint 2">
       <r>  -29.7078    1.0000 </r>
       <r>  -29.7069    1.0000 </r>
       <r>  -29.5590    1.0000 </r>
       <r>  -29.5581    1.0000 </r>
       <r>  -29.5055    1.0000 </r>
       <r>  -29.4761    1.0000 </r>
       <r>  -14.6929    1.0000 </r>
       <r>  -13.5778    1.0000 </r>
       <r>  -12.9052    1.0000 </r>
       <r>  -12.8442    1.0000 </r>
       <r>   -2.2833    1.0000 </r>
       <r>   -1.9034    1.0000 </r>
       <r>   -1.4419    1.0000 </r>
       <r>   -0.4224    1.0000 </r>
       <r>   -0.4144    1.0000 </r>
       <r>    0.6186    1.0000 </r>
       <r>    0.7460    1.0000 </r>
       <r>    1.4548    1.0000 </r>
       <r>    2.4454    1.0000 </r>
       <r>    2.5493    1.0000 </r>
       <r>    2.7285    1.0000 </r>
       <r>    3.2919    1.0000 </r>
       <r>    5.3466    0.0000 </r>
       <r>    5.6644    0.0000 </r>
       <r>    5.9704    0.0000 </r>
       <r>    5.9714    0.0000 </r>
       <r>    6.0163    0.0000 </r>
       <r>    7.8257    0.0000 </r>
       <r>    8.0116    0.0000 </r>
       <r>    9.9438    0.0000 </r>
       <r>    9.9689    0.0000 </r>
       <r>   11.2424    0.0000 </r>
      </set>
      <set comment="kpoint 3">
       <r>  -29.6838    1.0000 </r>
       <r>  -29.6815    1.0000 </r>
       <r>  -29.5867    1.0000 </r>
       <r>  -29.5843    1.0000 </r>
       <r>  -29.4993    1.0000 </r>
       <r>  -29.4823    1.0000 </r>
       <r>  -14.4120    1.0000 </r>
       <r>  -13.6902    1.0000 </r>
       <r>  -13.0609    1.0000 </r>
       <r>  -12.9423    1.0000 </r>
       <r>   -1.8923    1.0000 </r>
       <r>   -1.6643    1.0000 </r>
       <r>   -0.8448    1.0000 </r>
       <r>   -0.3947    1.0000 </r>
       <r>   -0.3799    1.0000 </r>
       <r>    0.2902    1.0000 </r>
       <r>    0.5317    1.0000 </r>
       <r>    1.3615    1.0000 </r>
       <r>    1.5402    1.0000 </r>
       <r>    2.1547    1.0000 </r>
       <r>    2.5002    1.0000 </r>
       <r>    2.9881    1.0000 </r>
       <r>    5.6452    0.0000 </r>
       <r>    5.8901    0.0000 </r>
       <r>    6.2195    0.0000 </r>
       <r>    6.2961    0.0000 </r>
       <r>    6.4235    0.0000 </r>
       <r>    7.4495    0.0000 </r>
       <r>    8.6394    0.0000 </r>
       <r>    9.7566    0.0000 </r>
       <r>    9.7953    0.0000 </r>
       <r>   10.3055    0.0000 </r>
      </set>
      <set comment="kpoint 4">
       <r>  -29.6624    1.0000 </r>
       <r>  -29.6624    1.0000 </r>
       <r>  -29.6068    1.0000 </r>
       <r>  -29.6068    1.0000 </r>
       <r>  -29.4908    1.0000 </r>
       <r>  -29.4908    1.0000 </r>
       <r>  -14.0256    1.0000 </r>
       <r>  -14.0256    1.0000 </r>
       <r>  -13.0479    1.0000 </r>
       <r>  -13.0479    1.0000 </r>
       <r>   -1.6017    1.0000 </r>
       <r>   -1.6017    1.0000 </r>
       <r>   -0.3718    1.0000 </r>
       <r>   -0.3718    1.0000 </r>
       <r>    0.0873    1.0000 </r>
       <r>    0.0873    1.0000 </r>
       <r>    0.3081    1.0000 </r>
       <r>    0.3081    1.0000 </r>
       <r>    1.7759    1.0000 </r>
       <r>    1.7759    1.0000 </r>
       <r>    2.6427    1.0000 </r>
       <r>    2.6427    1.0000 </r>
       <r>    5.8683    0.0000 </r>
       <r>    5.8683    0.0000 </r>
       <r>    6.3910    0.0000 </r>
       <r>    6.3910    0.0000 </r>
       <r>    6.9486    0.0000 </r>
       <r>    6.9486    0.0000 </r>
       <r>    9.4990    0.0000 </r>
       <r>    9.4990    0.0000 </r>
       <r>    9.6806    0.0000 </r>
       <r>    9.6806    0.0000 </r>
      </set>
      <set comment="kpoint 5">
       <r>  -29.7200    1.0000 </r>
       <r>  -29.6801    1.0000 </r>
       <r>  -29.5875    1.0000 </r>
       <r>  -29.5460    1.0000 </r>
       <r>  -29.5035    1.0000 </r>
       <r>  -29.4781    1.0000 </r>
       <r>  -14.6076    1.0000 </r>
       <r>  -13.5992    1.0000 </r>
       <r>  -13.0008    1.0000 </r>
       <r>  -12.8406    1.0000 </r>
       <r>   -2.2770    1.0000 </r>
       <r>   -1.6982    1.0000 </r>
       <r>   -1.2802    1.0000 </r>
       <r>   -0.4516    1.0000 </r>
       <r>   -0.3770    1.0000 </r>
       <r>    0.4026    1.0000 </r>
       <r>    0.8420    1.0000 </r>
       <r>    1.4808    1.0000 </r>
       <r>    2.1006    1.0000 </r>
       <r>    2.4529    1.0000 </r>
       <r>    2.5890    1.0000 </r>
       <r>    3.2227    1.0000 </r>
       <r>    5.2632    0.0000 </r>
       <r>    5.8339    0.0000 </r>
       <r>    5.8642    0.0000 </r>
       <r>    6.1644    0.0000 </r>
       <r>    6.2598    0.0000 </r>
       <r>    7.7318    0.0000 </r>
       <r>    8.1600    0.0000 </r>
       <r>    9.7781    0.0000 </r>
       <r>   10.0473    0.0000 </r>
       <r>   10.7280    0.0000 </r>
      </set>
      <set comment="kpoint 6">
       <r>  -29.7127    1.0000 </r>
       <r>  -29.6628    1.0000 </r>
       <r>  -29.6065    1.0000 </r>
       <r>  -29.5550    1.0000 </r>
       <r>  -29.4981    1.0000 </r>
       <r>  -29.4834    1.0000 </r>
       <r>  -14.3711    1.0000 </r>
       <r>  -13.7422    1.0000 </r>
       <r>  -13.0782    1.0000 </r>
       <r>  -12.9117    1.0000 </r>
       <r>   -2.1061    1.0000 </r>
       <r>   -1.5448    1.0000 </r>
       <r>   -0.7579    1.0000 </r>
       <r>   -0.4464    1.0000 </r>
       <r>   -0.3713    1.0000 </r>
       <r>    0.2994    1.0000 </r>
       <r>    0.6976    1.0000 </r>
       <r>    1.4979    1.0000 </r>
       <r>    1.6038    1.0000 </r>
       <r>    2.1882    1.0000 </r>
       <r>    2.2843    1.0000 </r>
       <r>    2.8958    1.0000 </r>
       <r>    5.4406    0.0000 </r>
       <r>    5.9048    0.0000 </r>
       <r>    5.9973    0.0000 </r>
       <r>    6.3961    0.0000 </r>
       <r>    6.5742    0.0000 </r>
       <r>    7.4422    0.0000 </r>
       <r>    8.6713    0.0000 </r>
       <r>    9.6788    0.0000 </r>
       <r>    9.9537    0.0000 </r>
       <r>   10.1401    0.0000 </r>
      </set>
      <set comment="kpoint 7">
       <r>  -29.6879    1.0000 </r>
       <r>  -29.6879    1.0000 </r>
       <r>  -29.5815    1.0000 </r>
       <r>  -29.5815    1.0000 </r>
       <r>  -29.4908    1.0000 </r>
       <r>  -29.4908    1.0000 </r>
       <r>  -14.0451    1.0000 </r>
       <r>  -14.0451    1.0000 </r>
       <r>  -13.0200    1.0000 </r>
       <r>  -13.0200    1.0000 </r>
       <r>   -1.7814    1.0000 </r>
       <r>   -1.7814    1.0000 </r>
       <r>   -0.4075    1.0000 </r>
       <r>   -0.4075    1.0000 </r>
       <r>   -0.0217    1.0000 </r>
[...]
       <r>   10.3762    0.0000 </r>
       <r>   10.3762    0.0000 </r>
      </set>
      <set comment="kpoint 48">
       <r>  -29.9594    1.0000 </r>
       <r>  -29.9529    1.0000 </r>
       <r>  -29.5799    1.0000 </r>
       <r>  -29.5672    1.0000 </r>
       <r>  -29.5474    1.0000 </r>
       <r>  -29.5441    1.0000 </r>
       <r>  -13.6191    1.0000 </r>
       <r>  -13.4011    1.0000 </r>
       <r>  -13.1870    1.0000 </r>
       <r>  -12.9536    1.0000 </r>
       <r>   -1.6986    1.0000 </r>
       <r>   -1.2784    1.0000 </r>
       <r>   -1.0735    1.0000 </r>
       <r>   -0.8845    1.0000 </r>
       <r>   -0.4621    1.0000 </r>
       <r>    0.2725    1.0000 </r>
       <r>    0.6606    1.0000 </r>
       <r>    0.7713    1.0000 </r>
       <r>    1.7053    1.0000 </r>
       <r>    2.0018    1.0000 </r>
       <r>    2.2775    1.0000 </r>
       <r>    2.5902    1.0000 </r>
       <r>    5.4328    0.0000 </r>
       <r>    6.0933    0.0000 </r>
       <r>    6.4900    0.0000 </r>
       <r>    6.5632    0.0000 </r>
       <r>    6.6516    0.0000 </r>
       <r>    7.1692    0.0000 </r>
       <r>    8.4612    0.0000 </r>
       <r>    9.3447    0.0000 </r>
       <r>    9.4722    0.0000 </r>
       <r>   10.3514    0.0000 </r>
      </set>
      <set comment="kpoint 49">
       <r>  -29.9547    1.0000 </r>
       <r>  -29.9547    1.0000 </r>
       <r>  -29.5765    1.0000 </r>
       <r>  -29.5765    1.0000 </r>
       <r>  -29.5448    1.0000 </r>
       <r>  -29.5448    1.0000 </r>
       <r>  -13.5069    1.0000 </r>
       <r>  -13.5069    1.0000 </r>
       <r>  -13.0726    1.0000 </r>
       <r>  -13.0726    1.0000 </r>
       <r>   -1.5570    1.0000 </r>
       <r>   -1.5570    1.0000 </r>
       <r>   -0.9972    1.0000 </r>
       <r>   -0.9972    1.0000 </r>
       <r>   -0.1495    1.0000 </r>
       <r>   -0.1495    1.0000 </r>
       <r>    0.7130    1.0000 </r>
       <r>    0.7130    1.0000 </r>
       <r>    1.9381    1.0000 </r>
       <r>    1.9381    1.0000 </r>
       <r>    2.5944    1.0000 </r>
       <r>    2.5944    1.0000 </r>
       <r>    5.7234    0.0000 </r>
       <r>    5.7234    0.0000 </r>
       <r>    6.5873    0.0000 </r>
       <r>    6.5873    0.0000 </r>
       <r>    6.8175    0.0000 </r>
       <r>    6.8175    0.0000 </r>
       <r>    8.8731    0.0000 </r>
       <r>    8.8731    0.0000 </r>
       <r>    9.9585    0.0000 </r>
       <r>    9.9585    0.0000 </r>
      </set>
      <set comment="kpoint 50">
       <r>  -29.9518    1.0000 </r>
       <r>  -29.9518    1.0000 </r>
       <r>  -29.5808    1.0000 </r>
       <r>  -29.5808    1.0000 </r>
       <r>  -29.5441    1.0000 </r>
       <r>  -29.5441    1.0000 </r>
       <r>  -13.4243    1.0000 </r>
       <r>  -13.4243    1.0000 </r>
       <r>  -13.1560    1.0000 </r>
       <r>  -13.1560    1.0000 </r>
       <r>   -1.4173    1.0000 </r>
       <r>   -1.4173    1.0000 </r>
       <r>   -1.2261    1.0000 </r>
       <r>   -1.2261    1.0000 </r>
       <r>   -0.1574    1.0000 </r>
       <r>   -0.1574    1.0000 </r>
       <r>    0.6697    1.0000 </r>
       <r>    0.6697    1.0000 </r>
       <r>    2.0557    1.0000 </r>
       <r>    2.0557    1.0000 </r>
       <r>    2.6848    1.0000 </r>
       <r>    2.6848    1.0000 </r>
       <r>    5.9953    0.0000 </r>
       <r>    5.9953    0.0000 </r>
       <r>    6.5357    0.0000 </r>
       <r>    6.5357    0.0000 </r>
       <r>    6.5850    0.0000 </r>
       <r>    6.5850    0.0000 </r>
       <r>    9.3456    0.0000 </r>
       <r>    9.3456    0.0000 </r>
       <r>    9.4641    0.0000 </r>
       <r>    9.4641    0.0000 </r>
      </set>
     </set>
    </set>
   </array>
  </eigenvalues>
  <separator name="orbital magnetization" >
   <v name="MAGDIPOLOUT">      0.00000000      0.00000000      0.00000000</v>
  </separator>
  <dos>
   <i name="efermi">      3.79360447 </i>
   <total>
    <array>
     <dimension dim="1">gridpoints</dimension>
     <dimension dim="2">spin</dimension>
     <field>energy</field>
     <field>total</field>
     <field>integrated</field>
     <set>
      <set comment="spin 1">
       <r>   -32.0235     0.0000     0.0000 </r>
       <r>   -31.8724     0.0000     0.0000 </r>
       <r>   -31.7213     0.0000     0.0000 </r>
       <r>   -31.5702     0.0000     0.0000 </r>
       <r>   -31.4192     0.0000     0.0000 </r>
       <r>   -31.2681     0.0000     0.0000 </r>
       <r>   -31.1170     0.0000     0.0000 </r>
       <r>   -30.9659     0.0000     0.0000 </r>
       <r>   -30.8148     0.0000     0.0000 </r>
       <r>   -30.6637     0.0000     0.0000 </r>
       <r>   -30.5126     0.0000     0.0000 </r>
       <r>   -30.3615     0.0000     0.0000 </r>
       <r>   -30.2105     0.0011     0.0002 </r>
       <r>   -30.0594     0.4568     0.0692 </r>
       <r>   -29.9083     5.4135     0.8871 </r>
       <r>   -29.7572     8.8467     2.2237 </r>
       <r>   -29.6061    26.6229     6.2461 </r>
       <r>   -29.4550    33.8853    11.3657 </r>
       <r>   -29.3039     4.1757    11.9966 </r>
       <r>   -29.1528     0.0224    12.0000 </r>
       <r>   -29.0018     0.0000    12.0000 </r>
       <r>   -28.8507     0.0000    12.0000 </r>
       <r>   -28.6996     0.0000    12.0000 </r>
       <r>   -28.5485     0.0000    12.0000 </r>
       <r>   -28.3974     0.0000    12.0000 </r>
       <r>   -28.2463     0.0000    12.0000 </r>
       <r>   -28.0952     0.0000    12.0000 </r>
       <r>   -27.9442     0.0000    12.0000 </r>
       <r>   -27.7931     0.0000    12.0000 </r>
       <r>   -27.6420     0.0000    12.0000 </r>
       <r>   -27.4909     0.0000    12.0000 </r>
       <r>   -27.3398     0.0000    12.0000 </r>
       <r>   -27.1887     0.0000    12.0000 </r>
       <r>   -27.0376     0.0000    12.0000 </r>
       <r>   -26.8865     0.0000    12.0000 </r>
       <r>   -26.7355     0.0000    12.0000 </r>
       <r>   -26.5844     0.0000    12.0000 </r>
       <r>   -26.4333     0.0000    12.0000 </r>
       <r>   -26.2822     0.0000    12.0000 </r>
       <r>   -26.1311     0.0000    12.0000 </r>
       <r>   -25.9800     0.0000    12.0000 </r>
       <r>   -25.8289     0.0000    12.0000 </r>
       <r>   -25.6778     0.0000    12.0000 </r>
       <r>   -25.5268     0.0000    12.0000 </r>
       <r>   -25.3757     0.0000    12.0000 </r>
       <r>   -25.2246     0.0000    12.0000 </r>
       <r>   -25.0735     0.0000    12.0000 </r>
       <r>   -24.9224     0.0000    12.0000 </r>
       <r>   -24.7713     0.0000    12.0000 </r>
       <r>   -24.6202     0.0000    12.0000 </r>
       <r>   -24.4691     0.0000    12.0000 </r>
       <r>   -24.3181     0.0000    12.0000 </r>
       <r>   -24.1670     0.0000    12.0000 </r>
       <r>   -24.0159     0.0000    12.0000 </r>
       <r>   -23.8648     0.0000    12.0000 </r>
       <r>   -23.7137     0.0000    12.0000 </r>
       <r>   -23.5626     0.0000    12.0000 </r>
       <r>   -23.4115     0.0000    12.0000 </r>
       <r>   -23.2604     0.0000    12.0000 </r>
       <r>   -23.1094     0.0000    12.0000 </r>
       <r>   -22.9583     0.0000    12.0000 </r>
       <r>   -22.8072     0.0000    12.0000 </r>
       <r>   -22.6561     0.0000    12.0000 </r>
       <r>   -22.5050     0.0000    12.0000 </r>
       <r>   -22.3539     0.0000    12.0000 </r>
       <r>   -22.2028     0.0000    12.0000 </r>
       <r>   -22.0518     0.0000    12.0000 </r>
       <r>   -21.9007     0.0000    12.0000 </r>
       <r>   -21.7496     0.0000    12.0000 </r>
       <r>   -21.5985     0.0000    12.0000 </r>
       <r>   -21.4474     0.0000    12.0000 </r>
       <r>   -21.2963     0.0000    12.0000 </r>
       <r>   -21.1452     0.0000    12.0000 </r>
       <r>   -20.9941     0.0000    12.0000 </r>
       <r>   -20.8431     0.0000    12.0000 </r>
       <r>   -20.6920     0.0000    12.0000 </r>
       <r>   -20.5409     0.0000    12.0000 </r>
       <r>   -20.3898     0.0000    12.0000 </r>
       <r>   -20.2387     0.0000    12.0000 </r>
       <r>   -20.0876     0.0000    12.0000 </r>
       <r>   -19.9365     0.0000    12.0000 </r>
       <r>   -19.7854     0.0000    12.0000 </r>
       <r>   -19.6344     0.0000    12.0000 </r>
       <r>   -19.4833     0.0000    12.0000 </r>
       <r>   -19.3322     0.0000    12.0000 </r>
       <r>   -19.1811     0.0000    12.0000 </r>
       <r>   -19.0300     0.0000    12.0000 </r>
       <r>   -18.8789     0.0000    12.0000 </r>
       <r>   -18.7278     0.0000    12.0000 </r>
       <r>   -18.5767     0.0000    12.0000 </r>
       <r>   -18.4257     0.0000    12.0000 </r>
       <r>   -18.2746     0.0000    12.0000 </r>
       <r>   -18.1235     0.0000    12.0000 </r>
       <r>   -17.9724     0.0000    12.0000 </r>
       <r>   -17.8213     0.0000    12.0000 </r>
       <r>   -17.6702     0.0000    12.0000 </r>
       <r>   -17.5191     0.0000    12.0000 </r>
       <r>   -17.3680     0.0000    12.0000 </r>
       <r>   -17.2170     0.0000    12.0000 </r>
       <r>   -17.0659     0.0000    12.0000 </r>
       <r>   -16.9148     0.0000    12.0000 </r>
       <r>   -16.7637     0.0000    12.0000 </r>
       <r>   -16.6126     0.0000    12.0000 </r>
       <r>   -16.4615     0.0000    12.0000 </r>
       <r>   -16.3104     0.0000    12.0000 </r>
       <r>   -16.1593     0.0000    12.0000 </r>
       <r>   -16.0083     0.0000    12.0000 </r>
       <r>   -15.8572     0.0000    12.0000 </r>
       <r>   -15.7061     0.0000    12.0000 </r>
       <r>   -15.5550     0.0000    12.0000 </r>
       <r>   -15.4039     0.0000    12.0000 </r>
       <r>   -15.2528     0.0000    12.0000 </r>
       <r>   -15.1017     0.0000    12.0000 </r>
       <r>   -14.9507     0.0006    12.0001 </r>
       <r>   -14.7996     0.0318    12.0049 </r>
       <r>   -14.6485     0.2573    12.0438 </r>
       <r>   -14.4974     0.5787    12.1312 </r>
       <r>   -14.3463     0.7512    12.2447 </r>
       <r>   -14.1952     1.3838    12.4538 </r>
       <r>   -14.0441     1.6252    12.6993 </r>
       <r>   -13.8930     2.5815    13.0894 </r>
       <r>   -13.7420     2.7248    13.5010 </r>
       <r>   -13.5909     6.0957    14.4220 </r>
       <r>   -13.4398     5.9208    15.3166 </r>
       <r>   -13.2887     4.8130    16.0438 </r>
       <r>   -13.1376     8.4792    17.3249 </r>
       <r>   -12.9865    11.2252    19.0209 </r>
       <r>   -12.8354     5.7261    19.8860 </r>
       <r>   -12.6843     0.7441    19.9984 </r>
       <r>   -12.5333     0.0103    20.0000 </r>
       <r>   -12.3822     0.0000    20.0000 </r>
       <r>   -12.2311     0.0000    20.0000 </r>
       <r>   -12.0800     0.0000    20.0000 </r>
       <r>   -11.9289     0.0000    20.0000 </r>
       <r>   -11.7778     0.0000    20.0000 </r>
       <r>   -11.6267     0.0000    20.0000 </r>
       <r>   -11.4756     0.0000    20.0000 </r>
       <r>   -11.3246     0.0000    20.0000 </r>
       <r>   -11.1735     0.0000    20.0000 </r>
       <r>   -11.0224     0.0000    20.0000 </r>
       <r>   -10.8713     0.0000    20.0000 </r>
       <r>   -10.7202     0.0000    20.0000 </r>
       <r>   -10.5691     0.0000    20.0000 </r>
       <r>   -10.4180     0.0000    20.0000 </r>
       <r>   -10.2669     0.0000    20.0000 </r>
       <r>   -10.1159     0.0000    20.0000 </r>
       <r>    -9.9648     0.0000    20.0000 </r>
       <r>    -9.8137     0.0000    20.0000 </r>
       <r>    -9.6626     0.0000    20.0000 </r>
       <r>    -9.5115     0.0000    20.0000 </r>
       <r>    -9.3604     0.0000    20.0000 </r>
       <r>    -9.2093     0.0000    20.0000 </r>
       <r>    -9.0583     0.0000    20.0000 </r>
       <r>    -8.9072     0.0000    20.0000 </r>
       <r>    -8.7561     0.0000    20.0000 </r>
       <r>    -8.6050     0.0000    20.0000 </r>
       <r>    -8.4539     0.0000    20.0000 </r>
       <r>    -8.3028     0.0000    20.0000 </r>
       <r>    -8.1517     0.0000    20.0000 </r>
       <r>    -8.0006     0.0000    20.0000 </r>
       <r>    -7.8496     0.0000    20.0000 </r>
       <r>    -7.6985     0.0000    20.0000 </r>
       <r>    -7.5474     0.0000    20.0000 </r>
       <r>    -7.3963     0.0000    20.0000 </r>
       <r>    -7.2452     0.0000    20.0000 </r>
       <r>    -7.0941     0.0000    20.0000 </r>
       <r>    -6.9430     0.0000    20.0000 </r>
       <r>    -6.7919     0.0000    20.0000 </r>
       <r>    -6.6409     0.0000    20.0000 </r>
       <r>    -6.4898     0.0000    20.0000 </r>
       <r>    -6.3387     0.0000    20.0000 </r>
       <r>    -6.1876     0.0000    20.0000 </r>
       <r>    -6.0365     0.0000    20.0000 </r>
       <r>    -5.8854     0.0000    20.0000 </r>
       <r>    -5.7343     0.0000    20.0000 </r>
       <r>    -5.5832     0.0000    20.0000 </r>
       <r>    -5.4322     0.0000    20.0000 </r>
       <r>    -5.2811     0.0000    20.0000 </r>
       <r>    -5.1300     0.0000    20.0000 </r>
       <r>    -4.9789     0.0000    20.0000 </r>
       <r>    -4.8278     0.0000    20.0000 </r>
       <r>    -4.6767     0.0000    20.0000 </r>
       <r>    -4.5256     0.0000    20.0000 </r>
       <r>    -4.3745     0.0000    20.0000 </r>
       <r>    -4.2235     0.0000    20.0000 </r>
       <r>    -4.0724     0.0000    20.0000 </r>
       <r>    -3.9213     0.0000    20.0000 </r>
       <r>    -3.7702     0.0000    20.0000 </r>
       <r>    -3.6191     0.0000    20.0000 </r>
       <r>    -3.4680     0.0000    20.0000 </r>
       <r>    -3.3169     0.0000    20.0000 </r>
       <r>    -3.1659     0.0000    20.0000 </r>
       <r>    -3.0148     0.0000    20.0000 </r>
       <r>    -2.8637     0.0000    20.0000 </r>
       <r>    -2.7126     0.0000    20.0000 </r>
       <r>    -2.5615     0.0035    20.0005 </r>
       <r>    -2.4104     0.0427    20.0070 </r>
       <r>    -2.2593     0.3426    20.0587 </r>
       <r>    -2.1082     1.0885    20.2232 </r>
       <r>    -1.9572     1.6412    20.4712 </r>
       <r>    -1.8061     1.5190    20.7007 </r>
       <r>    -1.6550     3.5612    21.2387 </r>
       <r>    -1.5039     4.9538    21.9872 </r>
       <r>    -1.3528     4.7834    22.7099 </r>
       <r>    -1.2017     6.9880    23.7657 </r>
       <r>    -1.0506     6.9646    24.8179 </r>
       <r>    -0.8995     6.2738    25.7658 </r>
       <r>    -0.7485     6.4361    26.7382 </r>
       <r>    -0.5974     5.3073    27.5401 </r>
       <r>    -0.4463     4.5231    28.2235 </r>
       <r>    -0.2952     3.9826    28.8252 </r>
       <r>    -0.1441     3.0396    29.2844 </r>
       <r>     0.0070     4.1457    29.9108 </r>
       <r>     0.1581     4.5037    30.5913 </r>
       <r>     0.3092     4.1381    31.2165 </r>
       <r>     0.4602     2.0440    31.5253 </r>
       <r>     0.6113     5.0498    32.2883 </r>
       <r>     0.7624     5.7351    33.1548 </r>
       <r>     0.9135     5.7463    34.0229 </r>
       <r>     1.0646     5.6455    34.8759 </r>
       <r>     1.2157     5.0803    35.6435 </r>
       <r>     1.3668     4.5132    36.3254 </r>
       <r>     1.5179     6.4753    37.3037 </r>
       <r>     1.6689     5.5489    38.1421 </r>
       <r>     1.8200     4.9529    38.8904 </r>
       <r>     1.9711     6.1540    39.8202 </r>
       <r>     2.1222     5.1832    40.6033 </r>
       <r>     2.2733     3.9446    41.1993 </r>
       <r>     2.4244     4.7749    41.9207 </r>
       <r>     2.5755     5.4335    42.7416 </r>
       <r>     2.7266     3.7784    43.3125 </r>
       <r>     2.8776     1.8685    43.5948 </r>
       <r>     3.0287     1.2872    43.7893 </r>
       <r>     3.1798     0.7372    43.9007 </r>
       <r>     3.3309     0.5072    43.9773 </r>
       <r>     3.4820     0.1444    43.9991 </r>
       <r>     3.6331     0.0059    44.0000 </r>
       <r>     3.7842     0.0000    44.0000 </r>
       <r>     3.9352     0.0000    44.0000 </r>
       <r>     4.0863     0.0000    44.0000 </r>
       <r>     4.2374     0.0000    44.0000 </r>
       <r>     4.3885     0.0000    44.0000 </r>
       <r>     4.5396     0.0000    44.0000 </r>
       <r>     4.6907     0.0000    44.0000 </r>
       <r>     4.8418     0.0000    44.0000 </r>
       <r>     4.9929     0.0002    44.0000 </r>
       <r>     5.1439     0.0489    44.0074 </r>
       <r>     5.2950     0.7044    44.1138 </r>
       <r>     5.4461     2.9913    44.5658 </r>
       <r>     5.5972     3.7166    45.1273 </r>
       <r>     5.7483     4.7854    45.8503 </r>
       <r>     5.8994     5.3441    46.6577 </r>
       <r>     6.0505     7.7958    47.8356 </r>
       <r>     6.2016     6.0585    48.7510 </r>
       <r>     6.3526     6.6699    49.7587 </r>
       <r>     6.5037     7.6354    50.9123 </r>
       <r>     6.6548     9.0658    52.2820 </r>
       <r>     6.8059     5.4911    53.1117 </r>
       <r>     6.9570     4.3612    53.7706 </r>
       <r>     7.1081     4.4201    54.4384 </r>
       <r>     7.2592     4.8365    55.1691 </r>
       <r>     7.4103     3.0977    55.6372 </r>
       <r>     7.5613     1.2215    55.8217 </r>
       <r>     7.7124     0.5496    55.9048 </r>
       <r>     7.8635     0.5217    55.9836 </r>
       <r>     8.0146     0.2817    56.0262 </r>
       <r>     8.1657     0.3776    56.0832 </r>
       <r>     8.3168     1.3368    56.2852 </r>
       <r>     8.4679     2.8811    56.7205 </r>
       <r>     8.6190     3.4790    57.2461 </r>
       <r>     8.7700     3.2215    57.7329 </r>
       <r>     8.9211     3.3222    58.2348 </r>
       <r>     9.0722     2.2629    58.5767 </r>
       <r>     9.2233     2.4586    58.9482 </r>
       <r>     9.3744     3.5576    59.4857 </r>
       <r>     9.5255     4.2051    60.1210 </r>
       <r>     9.6766     3.4414    60.6410 </r>
       <r>     9.8276     5.2934    61.4407 </r>
       <r>     9.9787     4.9120    62.1829 </r>
       <r>    10.1298     2.5485    62.5679 </r>
       <r>    10.2809     3.0132    63.0232 </r>
       <r>    10.4320     3.5832    63.5645 </r>
       <r>    10.5831     1.7232    63.8249 </r>
       <r>    10.7342     0.4509    63.8930 </r>
       <r>    10.8853     0.1315    63.9129 </r>
       <r>    11.0363     0.0561    63.9213 </r>
       <r>    11.1874     0.1578    63.9452 </r>
       <r>    11.3385     0.3299    63.9950 </r>
       <r>    11.4896     0.0328    64.0000 </r>
       <r>    11.6407     0.0001    64.0000 </r>
       <r>    11.7918     0.0000    64.0000 </r>
       <r>    11.9429     0.0000    64.0000 </r>
       <r>    12.0940     0.0000    64.0000 </r>
       <r>    12.2450     0.0000    64.0000 </r>
       <r>    12.3961     0.0000    64.0000 </r>
       <r>    12.5472     0.0000    64.0000 </r>
       <r>    12.6983     0.0000    64.0000 </r>
       <r>    12.8494     0.0000    64.0000 </r>
       <r>    13.0005     0.0000    64.0000 </r>
       <r>    13.1516     0.0000    64.0000 </r>
       <r>    13.3027     0.0000    64.0000 </r>
      </set>
     </set>
    </array>
   </total>
  </dos>
 </calculation>
 <structure name="finalpos" >
  <crystal>
   <varray name="basis" >
    <v>       4.60094756      -0.00000000       0.00000000 </v>
    <v>       0.00000000       4.60094756       0.00000000 </v>
    <v>      -0.00000000      -0.00000000       2.94242885 </v>
   </varray>
   <i name="volume">     62.28744797 </i>
   <varray name="rec_basis" >
    <v>       0.21734653      -0.00000000       0.00000000 </v>
    <v>       0.00000000       0.21734653       0.00000000 </v>
    <v>      -0.00000000      -0.00000000       0.33985529 </v>
   </varray>
  </crystal>
  <varray name="positions" >
   <v>       0.50000000       0.50000000       0.50000000 </v>
   <v>      -0.00000000       0.00000000       0.00000000 </v>
   <v>       0.19567008       0.80432992       0.50000000 </v>
   <v>       0.80432992       0.19567008       0.50000000 </v>
   <v>       0.30432992       0.30432992       0.00000000 </v>
   <v>       0.69567008       0.69567008      -0.00000000 </v>
  </varray>
 </structure>
</modeling>
