<?xml version="1.0" encoding="ISO-8859-1"?>
<modeling>
 <generator>
  <i name="program" type="string">vasp </i>
  <i name="version" type="string">6.2.1  </i>
  <i name="subversion" type="string">16May21 (build Feb 21 2022 05:53:28) complex                          parallel </i>
  <i name="platform" type="string">CrayXC_GCC_OMP </i>
  <i name="date" type="string">2023 01 20 </i>
  <i name="time" type="string">06:16:11 </i>
 </generator>
 <incar>
  <i type="int" name="ISTART">     0</i>
  <i type="string" name="PREC">Accurate</i>
  <i type="string" name="ALGO">All</i>
  <i type="int" name="ICHARG">    11</i>
  <i type="int" name="IBRION">     2</i>
  <i name="EDIFF">      0.00000100</i>
  <i name="EDIFFG">     -0.01000000</i>
  <i type="int" name="NSW">     0</i>
  <i type="int" name="ISIF">     2</i>
  <i name="ENCUT">    500.00000000</i>
  <i type="int" name="NBANDS">    88</i>
  <i name="POTIM">      0.10000000</i>
  <i type="logical" name="LREAL"> F  </i>
  <i type="int" name="ISMEAR">     0</i>
  <i name="SIGMA">      0.05000000</i>
  <i type="logical" name="LWAVE"> F  </i>
  <i type="logical" name="LCHARG"> T  </i>
  <i type="string" name="GGA">PS</i>
 </incar>
 <primitive_cell>
  <structure name="primitive_cell" >
   <crystal>
    <varray name="basis" >
     <v>       4.60094756      -0.00000000       0.00000000 </v>
     <v>       0.00000000       4.60094756       0.00000000 </v>
     <v>      -0.00000000      -0.00000000       2.94242885 </v>
    </varray>
    <i name="volume">     62.28744797 </i>
    <varray name="rec_basis" >
     <v>       0.21734653      -0.00000000       0.00000000 </v>
     <v>       0.00000000       0.21734653       0.00000000 </v>
     <v>      -0.00000000      -0.00000000       0.33985529 </v>
    </varray>
   </crystal>
   <varray name="positions" >
    <v>       0.50000000       0.50000000       0.50000000 </v>
    <v>       0.00000000       0.00000000       0.00000000 </v>
    <v>       0.19567008       0.80432992       0.50000000 </v>
    <v>       0.80432992       0.19567008       0.50000000 </v>
    <v>       0.30432992       0.30432992       0.00000000 </v>
    <v>       0.69567008       0.69567008       0.00000000 </v>
   </varray>
  </structure>
  <varray name="primitive_index" >
   <v type="int" >        1 </v>
   <v type="int" >        2 </v>
   <v type="int" >        3 </v>
   <v type="int" >        4 </v>
   <v type="int" >        5 </v>
   <v type="int" >        6 </v>
  </varray>
 </primitive_cell>
 <kpoints>
  <varray name="kpointlist" >
   <v>       0.00000000       0.00000000       0.00000000 </v>
   <v>       0.16666667      -0.00000000       0.00000000 </v>
   <v>       0.33333333       0.00000000       0.00000000 </v>
   <v>       0.50000000       0.00000000       0.00000000 </v>
   <v>       0.16666667       0.16666667       0.00000000 </v>
   <v>       0.33333333       0.16666667       0.00000000 </v>
   <v>       0.50000000       0.16666667       0.00000000 </v>
   <v>       0.33333333       0.33333333       0.00000000 </v>
   <v>       0.50000000       0.33333333       0.00000000 </v>
   <v>       0.50000000       0.50000000       0.00000000 </v>
   <v>      -0.00000000      -0.00000000       0.11111111 </v>
   <v>       0.16666667      -0.00000000       0.11111111 </v>
   <v>       0.33333333       0.00000000       0.11111111 </v>
   <v>       0.50000000       0.00000000       0.11111111 </v>
   <v>       0.16666667       0.16666667       0.11111111 </v>
   <v>       0.33333333       0.16666667       0.11111111 </v>
   <v>       0.50000000       0.16666667       0.11111111 </v>
   <v>       0.33333333       0.33333333       0.11111111 </v>
   <v>       0.50000000       0.33333333       0.11111111 </v>
   <v>       0.50000000       0.50000000       0.11111111 </v>
   <v>       0.00000000       0.00000000       0.22222222 </v>
   <v>       0.16666667      -0.00000000       0.22222222 </v>
   <v>       0.33333333       0.00000000       0.22222222 </v>
   <v>       0.50000000       0.00000000       0.22222222 </v>
   <v>       0.16666667       0.16666667       0.22222222 </v>
   <v>       0.33333333       0.16666667       0.22222222 </v>
   <v>       0.50000000       0.16666667       0.22222222 </v>
   <v>       0.33333333       0.33333333       0.22222222 </v>
   <v>       0.50000000       0.33333333       0.22222222 </v>
   <v>       0.50000000       0.50000000       0.22222222 </v>
   <v>      -0.00000000      -0.00000000       0.33333333 </v>
   <v>       0.16666667      -0.00000000       0.33333333 </v>
   <v>       0.33333333      -0.00000000       0.33333333 </v>
   <v>       0.50000000      -0.00000000       0.33333333 </v>
   <v>       0.16666667       0.16666667       0.33333333 </v>
   <v>       0.33333333       0.16666667       0.33333333 </v>
   <v>       0.50000000       0.16666667       0.33333333 </v>
   <v>       0.33333333       0.33333333       0.33333333 </v>
   <v>       0.50000000       0.33333333       0.33333333 </v>
   <v>       0.50000000       0.50000000       0.33333333 </v>
   <v>       0.00000000       0.00000000       0.44444444 </v>
   <v>       0.16666667       0.00000000       0.44444444 </v>
   <v>       0.33333333       0.00000000       0.44444444 </v>
   <v>       0.50000000       0.00000000       0.44444444 </v>
   <v>       0.16666667       0.16666667       0.44444444 </v>
   <v>       0.33333333       0.16666667       0.44444444 </v>
   <v>       0.50000000       0.16666667       0.44444444 </v>
   <v>       0.33333333       0.33333333       0.44444444 </v>
   <v>       0.50000000       0.33333333       0.44444444 </v>
   <v>       0.50000000       0.50000000       0.44444444 </v>
   <v>       0.29268293       0.50000000       0.50000000 </v>
   <v>       0.30487805       0.50000000       0.50000000 </v>
   <v>       0.31707317       0.50000000       0.50000000 </v>
   <v>       0.32926829       0.50000000       0.50000000 </v>
   <v>       0.34146341       0.50000000       0.50000000 </v>
   <v>       0.35365854       0.50000000       0.50000000 </v>
   <v>       0.36585366       0.50000000       0.50000000 </v>
   <v>       0.37804878       0.50000000       0.50000000 </v>
   <v>       0.39024390       0.50000000       0.50000000 </v>
   <v>       0.40243902       0.50000000       0.50000000 </v>
   <v>       0.41463415       0.50000000       0.50000000 </v>
   <v>       0.42682927       0.50000000       0.50000000 </v>
   <v>       0.43902439       0.50000000       0.50000000 </v>
   <v>       0.45121951       0.50000000       0.50000000 </v>
   <v>       0.46341463       0.50000000       0.50000000 </v>
   <v>       0.47560976       0.50000000       0.50000000 </v>
   <v>       0.48780488       0.50000000       0.50000000 </v>
   <v>       0.50000000       0.50000000       0.50000000 </v>
   <v>       0.49137931       0.49137931       0.50000000 </v>
   <v>       0.48275862       0.48275862       0.50000000 </v>
   <v>       0.47413793       0.47413793       0.50000000 </v>
   <v>       0.46551724       0.46551724       0.50000000 </v>
   <v>       0.45689655       0.45689655       0.50000000 </v>
   <v>       0.44827586       0.44827586       0.50000000 </v>
   <v>       0.43965517       0.43965517       0.50000000 </v>
   <v>       0.43103448       0.43103448       0.50000000 </v>
   <v>       0.42241379       0.42241379       0.50000000 </v>
   <v>       0.41379310       0.41379310       0.50000000 </v>
   <v>       0.40517241       0.40517241       0.50000000 </v>
   <v>       0.39655172       0.39655172       0.50000000 </v>
   <v>       0.38793103       0.38793103       0.50000000 </v>
   <v>       0.37931034       0.37931034       0.50000000 </v>
   <v>       0.37068966       0.37068966       0.50000000 </v>
   <v>       0.36206897       0.36206897       0.50000000 </v>
   <v>       0.35344828       0.35344828       0.50000000 </v>
   <v>       0.34482759       0.34482759       0.50000000 </v>
   <v>       0.33620690       0.33620690       0.50000000 </v>
   <v>       0.32758621       0.32758621       0.50000000 </v>
   <v>       0.31896552       0.31896552       0.50000000 </v>
   <v>       0.31034483       0.31034483       0.50000000 </v>
   <v>       0.30172414       0.30172414       0.50000000 </v>
   <v>       0.29310345       0.29310345       0.50000000 </v>
   <v>       0.28448276       0.28448276       0.50000000 </v>
   <v>       0.27586207       0.27586207       0.50000000 </v>
   <v>       0.26724138       0.26724138       0.50000000 </v>
   <v>       0.25862069       0.25862069       0.50000000 </v>
   <v>       0.25000000       0.25000000       0.50000000 </v>
   <v>       0.24137931       0.24137931       0.50000000 </v>
   <v>       0.23275862       0.23275862       0.50000000 </v>
   <v>       0.22413793       0.22413793       0.50000000 </v>
   <v>       0.21551724       0.21551724       0.50000000 </v>
   <v>       0.20689655       0.20689655       0.50000000 </v>
   <v>       0.19827586       0.19827586       0.50000000 </v>
   <v>       0.18965517       0.18965517       0.50000000 </v>
   <v>       0.18103448       0.18103448       0.50000000 </v>
   <v>       0.17241379       0.17241379       0.50000000 </v>
   <v>       0.16379310       0.16379310       0.50000000 </v>
   <v>       0.15517241       0.15517241       0.50000000 </v>
   <v>       0.14655172       0.14655172       0.50000000 </v>
   <v>       0.13793103       0.13793103       0.50000000 </v>
   <v>       0.12931034       0.12931034       0.50000000 </v>
   <v>       0.12068966       0.12068966       0.50000000 </v>
   <v>       0.11206897       0.11206897       0.50000000 </v>
   <v>       0.10344828       0.10344828       0.50000000 </v>
   <v>       0.09482759       0.09482759       0.50000000 </v>
   <v>       0.08620690       0.08620690       0.50000000 </v>
   <v>       0.07758621       0.07758621       0.50000000 </v>
   <v>       0.06896552       0.06896552       0.50000000 </v>
   <v>       0.06034483       0.06034483       0.50000000 </v>
   <v>       0.05172414       0.05172414       0.50000000 </v>
   <v>       0.04310345       0.04310345       0.50000000 </v>
   <v>       0.03448276       0.03448276       0.50000000 </v>
   <v>       0.02586207       0.02586207       0.50000000 </v>
   <v>       0.01724138       0.01724138       0.50000000 </v>
   <v>       0.00862069       0.00862069       0.50000000 </v>
   <v>       0.00000000       0.00000000       0.50000000 </v>
  </varray>
  <varray name="weights" >
   <v>       0.00308642 </v>
   <v>       0.01234568 </v>
   <v>       0.01234568 </v>
   <v>       0.00617284 </v>
   <v>       0.01234568 </v>
   <v>       0.02469136 </v>
   <v>       0.01234568 </v>
   <v>       0.01234568 </v>
   <v>       0.01234568 </v>
   <v>       0.00308642 </v>
   <v>       0.00617284 </v>
   <v>       0.02469136 </v>
   <v>       0.02469136 </v>
   <v>       0.01234568 </v>
   <v>       0.02469136 </v>
   <v>       0.04938272 </v>
   <v>       0.02469136 </v>
   <v>       0.02469136 </v>
   <v>       0.02469136 </v>
   <v>       0.00617284 </v>
   <v>       0.00617284 </v>
   <v>       0.02469136 </v>
   <v>       0.02469136 </v>
   <v>       0.01234568 </v>
   <v>       0.02469136 </v>
   <v>       0.04938272 </v>
   <v>       0.02469136 </v>
   <v>       0.02469136 </v>
   <v>       0.02469136 </v>
   <v>       0.00617284 </v>
   <v>       0.00617284 </v>
   <v>       0.02469136 </v>
   <v>       0.02469136 </v>
   <v>       0.01234568 </v>
   <v>       0.02469136 </v>
   <v>       0.04938272 </v>
   <v>       0.02469136 </v>
   <v>       0.02469136 </v>
   <v>       0.02469136 </v>
   <v>       0.00617284 </v>
   <v>       0.00617284 </v>
   <v>       0.02469136 </v>
   <v>       0.02469136 </v>
   <v>       0.01234568 </v>
   <v>       0.02469136 </v>
   <v>       0.04938272 </v>
   <v>       0.02469136 </v>
   <v>       0.02469136 </v>
   <v>       0.02469136 </v>
   <v>       0.00617284 </v>
   <v>       0.00000000 </v>
   <v>       0.00000000 </v>
   <v>       0.00000000 </v>
   <v>       0.00000000 </v>
   <v>       0.00000000 </v>
   <v>       0.00000000 </v>
   <v>       0.00000000 </v>
   <v>       0.00000000 </v>
   <v>       0.00000000 </v>
   <v>       0.00000000 </v>
   <v>       0.00000000 </v>
   <v>       0.00000000 </v>
   <v>       0.00000000 </v>
   <v>       0.00000000 </v>
   <v>       0.00000000 </v>
   <v>       0.00000000 </v>
   <v>       0.00000000 </v>
   <v>       0.00000000 </v>
   <v>       0.00000000 </v>
   <v>       0.00000000 </v>
   <v>       0.00000000 </v>
   <v>       0.00000000 </v>
   <v>       0.00000000 </v>
   <v>       0.00000000 </v>
   <v>       0.00000000 </v>
   <v>       0.00000000 </v>
   <v>       0.00000000 </v>
   <v>       0.00000000 </v>
   <v>       0.00000000 </v>
   <v>       0.00000000 </v>
   <v>       0.00000000 </v>
   <v>       0.00000000 </v>
   <v>       0.00000000 </v>
   <v>       0.00000000 </v>
   <v>       0.00000000 </v>
   <v>       0.00000000 </v>
   <v>       0.00000000 </v>
   <v>       0.00000000 </v>
   <v>       0.00000000 </v>
   <v>       0.00000000 </v>
   <v>       0.00000000 </v>
   <v>       0.00000000 </v>
   <v>       0.00000000 </v>
   <v>       0.00000000 </v>
   <v>       0.00000000 </v>
   <v>       0.00000000 </v>
   <v>       0.00000000 </v>
   <v>       0.00000000 </v>
   <v>       0.00000000 </v>
   <v>       0.00000000 </v>
   <v>       0.00000000 </v>
   <v>       0.00000000 </v>
   <v>       0.00000000 </v>
   <v>       0.00000000 </v>
   <v>       0.00000000 </v>
   <v>       0.00000000 </v>
   <v>       0.00000000 </v>
   <v>       0.00000000 </v>
   <v>       0.00000000 </v>
   <v>       0.00000000 </v>
   <v>       0.00000000 </v>
   <v>       0.00000000 </v>
   <v>       0.00000000 </v>
   <v>       0.00000000 </v>
   <v>       0.00000000 </v>
   <v>       0.00000000 </v>
   <v>       0.00000000 </v>
   <v>       0.00000000 </v>
   <v>       0.00000000 </v>
   <v>       0.00000000 </v>
   <v>       0.00000000 </v>
   <v>       0.00000000 </v>
   <v>       0.00000000 </v>
   <v>       0.00000000 </v>
   <v>       0.00000000 </v>
   <v>       0.00000000 </v>
  </varray>
 </kpoints>
 <parameters>
  <separator name="general" >
   <i type="string" name="SYSTEM">unknown system</i>
   <i type="logical" name="LCOMPAT"> F  </i>
  </separator>
  <separator name="electronic" >
   <i type="string" name="PREC">accura</i>
   <i name="ENMAX">    500.00000000</i>
   <i name="ENAUG">    605.39200000</i>
   <i name="EDIFF">      0.00000100</i>
   <i type="int" name="IALGO">    58</i>
   <i type="int" name="IWAVPR">    10</i>
   <i type="int" name="NBANDS">    96</i>
   <i type="int" name="NBANDSLOW">    -1</i>
   <i type="int" name="NBANDSHIGH">    -1</i>
   <i name="NELECT">     44.00000000</i>
   <i type="int" name="TURBO">     0</i>
   <i type="int" name="IRESTART">     0</i>
   <i type="int" name="NREBOOT">     0</i>
   <i type="int" name="NMIN">     0</i>
   <i name="EREF">      0.00000000</i>
   <separator name="electronic smearing" >
    <i type="int" name="ISMEAR">     0</i>
    <i name="SIGMA">      0.05000000</i>
    <i name="KSPACING">      0.50000000</i>
    <i type="logical" name="KGAMMA"> T  </i>
    <i type="logical" name="KBLOWUP"> T  </i>
   </separator>
   <separator name="electronic projectors" >
    <i type="logical" name="LREAL"> F  </i>
    <v name="ROPT">      0.00000000      0.00000000</v>
    <i type="int" name="LMAXPAW">  -100</i>
    <i type="int" name="LMAXMIX">     2</i>
    <i type="logical" name="NLSPLINE"> F  </i>
   </separator>
   <separator name="electronic startup" >
    <i type="int" name="ISTART">     0</i>
    <i type="int" name="ICHARG">    11</i>
    <i type="int" name="INIWAV">     1</i>
   </separator>
   <separator name="electronic spin" >
    <i type="int" name="ISPIN">     1</i>
    <i type="logical" name="LNONCOLLINEAR"> F  </i>
    <v name="MAGMOM">      1.00000000      1.00000000      1.00000000      1.00000000      1.00000000      1.00000000</v>
    <i name="NUPDOWN">     -1.00000000</i>
    <i type="logical" name="LSORBIT"> F  </i>
    <v name="SAXIS">      0.00000000      0.00000000      1.00000000</v>
    <i type="logical" name="LSPIRAL"> F  </i>
    <v name="QSPIRAL">      0.00000000      0.00000000      0.00000000</v>
    <i type="logical" name="LZEROZ"> F  </i>
   </separator>
   <separator name="electronic exchange-correlation" >
    <i type="logical" name="LASPH"> F  </i>
    <i type="logical" name="LMETAGGA"> F  </i>
   </separator>
   <separator name="electronic convergence" >
    <i type="int" name="NELM">    60</i>
    <i type="int" name="NELMDL">    -5</i>
    <i type="int" name="NELMIN">     2</i>
    <i name="ENINI">    500.00000000</i>
    <separator name="electronic convergence detail" >
     <i type="logical" name="LDIAG"> T  </i>
     <i type="logical" name="LSUBROT"> F  </i>
     <i name="WEIMIN">      0.00000000</i>
     <i name="EBREAK">      0.00000000</i>
     <i name="DEPER">      0.30000000</i>
     <i type="int" name="NRMM">     4</i>
     <i name="TIME">      0.40000000</i>
    </separator>
   </separator>
   <separator name="electronic mixer" >
    <i name="AMIX">      0.40000000</i>
    <i name="BMIX">      1.00000000</i>
    <i name="AMIN">      0.10000000</i>
    <i name="AMIX_MAG">      1.60000000</i>
    <i name="BMIX_MAG">      1.00000000</i>
    <separator name="electronic mixer details" >
     <i type="int" name="IMIX">     4</i>
     <i type="logical" name="MIXFIRST"> F  </i>
     <i type="int" name="MAXMIX">   -45</i>
     <i name="WC">    100.00000000</i>
     <i type="int" name="INIMIX">     1</i>
     <i type="int" name="MIXPRE">     1</i>
     <i type="int" name="MREMOVE">     5</i>
    </separator>
   </separator>
   <separator name="electronic dipolcorrection" >
    <i type="logical" name="LDIPOL"> F  </i>
    <i type="logical" name="LMONO"> F  </i>
    <i type="int" name="IDIPOL">     0</i>
    <i name="EPSILON">      1.00000000</i>
    <v name="DIPOL">   -100.00000000   -100.00000000   -100.00000000</v>
    <i name="EFIELD">      0.00000000</i>
   </separator>
  </separator>
  <separator name="grids" >
   <i type="int" name="NGX">    36</i>
   <i type="int" name="NGY">    36</i>
   <i type="int" name="NGZ">    24</i>
   <i type="int" name="NGXF">    72</i>
   <i type="int" name="NGYF">    72</i>
   <i type="int" name="NGZF">    48</i>
   <i type="logical" name="ADDGRID"> F  </i>
  </separator>
  <separator name="ionic" >
   <i type="int" name="NSW">     0</i>
   <i type="int" name="IBRION">    -1</i>
   <i type="int" name="MDALGO">     0</i>
   <i type="int" name="ISIF">     2</i>
   <i name="PSTRESS">      0.00000000</i>
   <i name="EDIFFG">     -0.01000000</i>
   <i type="int" name="NFREE">     1</i>
   <i name="POTIM">      0.10000000</i>
   <i name="SMASS">     -3.00000000</i>
   <i name="SCALEE">      1.00000000</i>
  </separator>
  <separator name="ionic md" >
   <i name="TEBEG">      0.00010000</i>
   <i name="TEEND">      0.00010000</i>
   <i type="int" name="NBLOCK">     1</i>
   <i type="int" name="KBLOCK">     1</i>
   <i type="int" name="NPACO">   256</i>
   <i name="APACO">     16.00000000</i>
  </separator>
  <separator name="symmetry" >
   <i type="int" name="ISYM">     2</i>
   <i name="SYMPREC">      0.00001000</i>
  </separator>
  <separator name="dos" >
   <i type="int" name="LORBIT">     0</i>
   <v name="RWIGS">     -1.00000000     -1.00000000</v>
   <i type="int" name="NEDOS">   301</i>
   <i name="EMIN">     10.00000000</i>
   <i name="EMAX">    -10.00000000</i>
   <i name="EFERMI">      0.00000000</i>
  </separator>
  <separator name="writing" >
   <i type="int" name="NWRITE">     2</i>
   <i type="logical" name="LWAVE"> F  </i>
   <i type="logical" name="LDOWNSAMPLE"> F  </i>
   <i type="logical" name="LCHARG"> T  </i>
   <i type="logical" name="LPARD"> F  </i>
   <i type="logical" name="LVTOT"> F  </i>
   <i type="logical" name="LVHAR"> F  </i>
   <i type="logical" name="LELF"> F  </i>
   <i type="logical" name="LOPTICS"> F  </i>
   <v name="STM">      0.00000000      0.00000000      0.00000000      0.00000000      0.00000000      0.00000000      0.00000000</v>
  </separator>
  <separator name="performance" >
   <i type="int" name="NPAR">    16</i>
   <i type="int" name="NSIM">     4</i>
   <i type="int" name="NBLK">    -1</i>
   <i type="logical" name="LPLANE"> T  </i>
   <i type="logical" name="LSCALAPACK"> T  </i>
   <i type="logical" name="LSCAAWARE"> T  </i>
   <i type="logical" name="LSCALU"> F  </i>
   <i type="logical" name="LASYNC"> F  </i>
   <i type="logical" name="LORBITALREAL"> F  </i>
  </separator>
  <separator name="miscellaneous" >
   <i type="int" name="IDIOT">     3</i>
   <i type="int" name="PHON_NSTRUCT">    -1</i>
   <i type="logical" name="LMUSIC"> F  </i>
   <v name="POMASS">     47.88000000     16.00000000</v>
   <v name="DARWINR">      0.00000000      0.00000000</v>
   <v name="DARWINV">      1.00000000      1.00000000</v>
   <i type="logical" name="LCORR"> T  </i>
  </separator>
  <i type="logical" name="GGA_COMPAT"> T  </i>
  <i type="logical" name="LBERRY"> F  </i>
  <i type="int" name="ICORELEVEL">     0</i>
  <i type="logical" name="LDAU"> F  </i>
  <i type="int" name="I_CONSTRAINED_M">     0</i>
  <separator name="electronic exchange-correlation" >
   <i type="string" name="GGA">PS</i>
   <i type="int" name="VOSKOWN">     0</i>
   <i type="logical" name="LHFCALC"> F  </i>
   <i type="string" name="PRECFOCK"></i>
   <i type="logical" name="LSYMGRAD"> F  </i>
   <i type="logical" name="LHFONE"> F  </i>
   <i type="logical" name="LRHFCALC"> F  </i>
   <i type="logical" name="LTHOMAS"> F  </i>
   <i type="logical" name="LMODELHF"> F  </i>
   <i type="logical" name="LFOCKACE"> F  </i>
   <i name="ENCUT4O">     -1.00000000</i>
   <i type="int" name="EXXOEP">     0</i>
   <i type="int" name="FOURORBIT">     0</i>
   <i name="AEXX">      0.00000000</i>
   <i name="HFALPHA">      0.00000000</i>
   <i name="MCALPHA">      0.00000000</i>
   <i name="ALDAX">      1.00000000</i>
   <i name="AGGAX">      1.00000000</i>
   <i name="ALDAC">      1.00000000</i>
   <i name="AGGAC">      1.00000000</i>
   <i type="int" name="NKREDX">     1</i>
   <i type="int" name="NKREDY">     1</i>
   <i type="int" name="NKREDZ">     1</i>
   <i type="logical" name="SHIFTRED"> F  </i>
   <i type="logical" name="ODDONLY"> F  </i>
   <i type="logical" name="EVENONLY"> F  </i>
   <i type="int" name="LMAXFOCK">     0</i>
   <i type="int" name="NMAXFOCKAE">     0</i>
   <i type="logical" name="LFOCKAEDFT"> F  </i>
   <i name="HFSCREEN">      0.00000000</i>
   <i name="HFSCREENC">      0.00000000</i>
   <i type="int" name="NBANDSGWLOW">     0</i>
  </separator>
  <separator name="vdW DFT" >
   <i type="logical" name="LUSE_VDW"> F  </i>
   <i name="Zab_VDW">     -0.84910000</i>
   <i name="PARAM1">      0.12340000</i>
   <i name="PARAM2">      1.00000000</i>
   <i name="PARAM3">      0.00000000</i>
  </separator>
  <separator name="model GW" >
   <i type="int" name="MODEL_GW">     0</i>
   <i name="MODEL_EPS0">      6.22874480</i>
   <i name="MODEL_ALPHA">      1.00000000</i>
  </separator>
  <separator name="linear response parameters" >
   <i type="logical" name="LEPSILON"> F  </i>
   <i type="logical" name="LRPA"> F  </i>
   <i type="logical" name="LNABLA"> F  </i>
   <i type="logical" name="LVEL"> F  </i>
   <i type="int" name="KINTER">     0</i>
   <i name="CSHIFT">      0.10000000</i>
   <i name="OMEGAMAX">     -1.00000000</i>
   <i name="DEG_THRESHOLD">      0.00200000</i>
   <i name="RTIME">     -0.10000000</i>
   <i name="WPLASMAI">      0.00000000</i>
   <v name="DFIELD">      0.00000000      0.00000000      0.00000000</v>
   <v name="WPLASMA">      0.00000000      0.00000000      0.00000000      0.00000000      0.00000000      0.00000000      0.00000000      0.00000000      0.00000000</v>
  </separator>
  <separator name="orbital magnetization" >
   <i type="logical" name="NUCIND"> F  </i>
   <v name="MAGPOS">      0.00000000      0.00000000      0.00000000</v>
   <i type="logical" name="LNICSALL"> T  </i>
   <i type="logical" name="ORBITALMAG"> F  </i>
   <i type="logical" name="LMAGBLOCH"> F  </i>
   <i type="logical" name="LCHIMAG"> F  </i>
   <i type="logical" name="LGAUGE"> T  </i>
   <i type="int" name="MAGATOM">     0</i>
   <v name="MAGDIPOL">      0.00000000      0.00000000      0.00000000</v>
   <v name="AVECCONST">      0.00000000      0.00000000      0.00000000</v>
  </separator>
  <separator name="response functions" >
   <i type="logical" name="LFINITE_TEMPERATURE"> F  </i>
   <i type="logical" name="LADDER"> F  </i>
   <i type="logical" name="LRPAFORCE"> F  </i>
   <i type="logical" name="LFXC"> F  </i>
   <i type="logical" name="LHARTREE"> T  </i>
   <i type="int" name="IBSE">     0</i>
   <v type="int" name="KPOINT">    -1     0     0     0</v>
   <i type="logical" name="LTCTC"> F  </i>
   <i type="logical" name="LTCTE"> F  </i>
   <i type="logical" name="LTETE"> F  </i>
   <i type="logical" name="LTRIPLET"> F  </i>
   <i type="logical" name="LFXCEPS"> F  </i>
   <i type="logical" name="LFXHEG"> F  </i>
   <i type="int" name="NATURALO">     2</i>
   <i type="logical" name="LHOLEGF"> F  </i>
   <i type="logical" name="L2ORDER"> F  </i>
   <i type="logical" name="LDMP1"> F  </i>
   <i type="logical" name="LMP2LT"> F  </i>
   <i type="logical" name="LSMP2LT"> F  </i>
   <i type="logical" name="LGWLF"> F  </i>
   <i name="ENCUTGW">     -2.00000000</i>
   <i name="ENCUTGWSOFT">     -2.00000000</i>
   <i name="ENCUTLF">     -1.00000000</i>
   <i type="logical" name="LESF_SPLINES"> F  </i>
   <i type="int" name="LMAXMP2">    -1</i>
   <i name="SCISSOR">      0.00000000</i>
   <i type="int" name="NOMEGA">     0</i>
   <i type="int" name="NOMEGAR">     0</i>
   <i type="int" name="NBANDSGW">    -1</i>
   <i type="int" name="NBANDSO">    -1</i>
   <i type="int" name="NBANDSV">    -1</i>
   <i type="int" name="NELM">     1</i>
   <i type="int" name="NELMHF">     1</i>
   <i type="int" name="DIM">     3</i>
   <i type="int" name="IESPILON">     4</i>
   <i type="int" name="ANTIRES">     0</i>
   <i name="OMEGAMAX">    -30.00000000</i>
   <i name="OMEGAMIN">    -30.00000000</i>
   <i name="OMEGATL">   -200.00000000</i>
   <i type="int" name="OMEGAGRID">     0</i>
   <i name="CSHIFT">     -0.10000000</i>
   <i type="logical" name="LSELFENERGY"> F  </i>
   <i type="logical" name="LSPECTRAL"> F  </i>
   <i type="logical" name="LSPECTRALGW"> F  </i>
   <i type="logical" name="LSINGLES"> F  </i>
   <i type="logical" name="LFERMIGW"> F  </i>
   <i type="logical" name="ODDONLYGW"> F  </i>
   <i type="logical" name="EVENONLYGW"> F  </i>
   <i type="int" name="NKREDLFX">     1</i>
   <i type="int" name="NKREDLFY">     1</i>
   <i type="int" name="NKREDLFZ">     1</i>
   <i type="int" name="MAXMEM">  2800</i>
   <i type="int" name="TELESCOPE">     0</i>
   <i type="int" name="NTAUPAR">    -1</i>
   <i type="int" name="NOMEGAPAR">    -1</i>
   <i name="DAMP_NEWTON">      0.80000001</i>
   <i name="LAMBDA">      1.00000000</i>
  </separator>
  <separator name="External order field" >
   <i name="OFIELD_KAPPA">      0.00000000</i>
   <v name="OFIELD_K">      0.00000000      0.00000000      0.00000000</v>
   <i name="OFIELD_Q6_NEAR">      0.00000000</i>
   <i name="OFIELD_Q6_FAR">      0.00000000</i>
   <i name="OFIELD_A">      0.00000000</i>
  </separator>
 </parameters>
 <atominfo>
  <atoms>       6 </atoms>
  <types>       2 </types>
  <array name="atoms" >
   <dimension dim="1">ion</dimension>
   <field type="string">element</field>
   <field type="int">atomtype</field>
   <set>
    <rc><c>Ti</c><c>   1</c></rc>
    <rc><c>Ti</c><c>   1</c></rc>
    <rc><c>O </c><c>   2</c></rc>
    <rc><c>O </c><c>   2</c></rc>
    <rc><c>O </c><c>   2</c></rc>
    <rc><c>O </c><c>   2</c></rc>
   </set>
  </array>
  <array name="atomtypes" >
   <dimension dim="1">type</dimension>
   <field type="int">atomspertype</field>
   <field type="string">element</field>
   <field>mass</field>
   <field>valence</field>
   <field type="string">pseudopotential</field>
   <set>
    <rc><c>   2</c><c>Ti</c><c>     47.88000000</c><c>     10.00000000</c><c>  PAW_PBE Ti_pv 07Sep2000               </c></rc>
    <rc><c>   4</c><c>O </c><c>     16.00000000</c><c>      6.00000000</c><c>  PAW_PBE O 08Apr2002                   </c></rc>
   </set>
  </array>
 </atominfo>
 <structure name="initialpos" >
  <crystal>
   <varray name="basis" >
    <v>       4.60094756      -0.00000000       0.00000000 </v>
    <v>       0.00000000       4.60094756       0.00000000 </v>
    <v>      -0.00000000      -0.00000000       2.94242885 </v>
   </varray>
   <i name="volume">     62.28744797 </i>
   <varray name="rec_basis" >
    <v>       0.21734653      -0.00000000       0.00000000 </v>
    <v>       0.00000000       0.21734653       0.00000000 </v>
    <v>      -0.00000000      -0.00000000       0.33985529 </v>
   </varray>
  </crystal>
  <varray name="positions" >
   <v>       0.50000000       0.50000000       0.50000000 </v>
   <v>       0.00000000       0.00000000       0.00000000 </v>
   <v>       0.19567008       0.80432992       0.50000000 </v>
   <v>       0.80432992       0.19567008       0.50000000 </v>
   <v>       0.30432992       0.30432992       0.00000000 </v>
   <v>       0.69567008       0.69567008       0.00000000 </v>
  </varray>
 </structure>
 <calculation>
  <scstep>
   <time name="total">    3.88    3.97</time>
   <energy>
    <i name="alphaZ">    219.50783828 </i>
    <i name="ewald">  -2936.72308892 </i>
    <i name="hartreedc">   -862.50112224 </i>
    <i name="XCdc">    186.29543585 </i>
    <i name="pawpsdc">   4935.12184278 </i>
    <i name="pawaedc">  -4951.05196594 </i>
    <i name="eentropy">     -0.00071510 </i>
    <i name="bandstr">    -25.95569343 </i>
    <i name="atom">   3805.83765485 </i>
    <i name="e_fr_energy">    370.53018614 </i>
    <i name="e_wo_entrp">    370.53090124 </i>
    <i name="e_0_energy">    370.53054369 </i>
   </energy>
  </scstep>
  <scstep>
   <time name="total">    3.80    3.81</time>
   <energy>
    <i name="e_fr_energy">    -29.74131204 </i>
    <i name="e_wo_entrp">    -29.74131204 </i>
    <i name="e_0_energy">    -29.74131204 </i>
   </energy>
  </scstep>
  <scstep>
   <time name="total">    4.63    4.65</time>
   <energy>
    <i name="e_fr_energy">    -55.75276821 </i>
    <i name="e_wo_entrp">    -55.75276821 </i>
    <i name="e_0_energy">    -55.75276821 </i>
   </energy>
  </scstep>
  <scstep>
   <time name="total">    4.47    4.48</time>
   <energy>
    <i name="e_fr_energy">    -55.88763146 </i>
    <i name="e_wo_entrp">    -55.88763146 </i>
    <i name="e_0_energy">    -55.88763146 </i>
   </energy>
  </scstep>
  <scstep>
   <time name="total">    4.23    4.25</time>
   <energy>
    <i name="e_fr_energy">    -55.88782260 </i>
    <i name="e_wo_entrp">    -55.88782260 </i>
    <i name="e_0_energy">    -55.88782260 </i>
   </energy>
  </scstep>
  <scstep>
   <time name="total">    4.38    4.40</time>
   <energy>
    <i name="alphaZ">    219.50783828 </i>
    <i name="ewald">  -2936.72308892 </i>
    <i name="hartreedc">   -862.50112224 </i>
    <i name="XCdc">    186.29543585 </i>
    <i name="pawpsdc">   4935.12184278 </i>
    <i name="pawaedc">  -4951.05196594 </i>
    <i name="eentropy">     -0.00000000 </i>
    <i name="bandstr">   -452.37441726 </i>
    <i name="atom">   3805.83765485 </i>
    <i name="e_fr_energy">    -55.88782260 </i>
    <i name="e_wo_entrp">    -55.88782260 </i>
    <i name="e_0_energy">    -55.88782260 </i>
   </energy>
  </scstep>
  <structure>
   <crystal>
    <varray name="basis" >
     <v>       4.60094756      -0.00000000       0.00000000 </v>
     <v>       0.00000000       4.60094756       0.00000000 </v>
     <v>      -0.00000000      -0.00000000       2.94242885 </v>
    </varray>
    <i name="volume">     62.28744797 </i>
    <varray name="rec_basis" >
     <v>       0.21734653      -0.00000000       0.00000000 </v>
     <v>       0.00000000       0.21734653       0.00000000 </v>
     <v>      -0.00000000      -0.00000000       0.33985529 </v>
    </varray>
   </crystal>
   <varray name="positions" >
    <v>       0.50000000       0.50000000       0.50000000 </v>
    <v>       0.00000000       0.00000000       0.00000000 </v>
    <v>       0.19567008       0.80432992       0.50000000 </v>
    <v>       0.80432992       0.19567008       0.50000000 </v>
    <v>       0.30432992       0.30432992       0.00000000 </v>
    <v>       0.69567008       0.69567008       0.00000000 </v>
   </varray>
  </structure>
  <varray name="forces" >
   <v>       0.00000000      -0.00000000      -0.00000000 </v>
   <v>      -0.00000000      -0.00000000      -0.00000000 </v>
   <v>       0.00636927      -0.00636927      -0.00000000 </v>
   <v>      -0.00636927       0.00636927      -0.00000000 </v>
   <v>      -0.00636927      -0.00636927      -0.00000000 </v>
   <v>       0.00636927       0.00636927       0.00000000 </v>
  </varray>
  <varray name="stress" >
   <v>      -1.55528567       0.00000000       0.00000000 </v>
   <v>      -0.00000000      -1.55528567       0.00000000 </v>
   <v>       0.00000000       0.00000000       1.94933664 </v>
  </varray>
  <energy>
   <i name="e_fr_energy">    -55.88782260 </i>
   <i name="e_wo_entrp">    -55.88782260 </i>
   <i name="e_0_energy">    -55.88782260 </i>
  </energy>
  <time name="totalsc">   26.67   26.92</time>
  <eigenvalues>
   <array>
    <dimension dim="1">band</dimension>
    <dimension dim="2">kpoint</dimension>
    <dimension dim="3">spin</dimension>
    <field>eigene</field>
    <field>occ</field>
    <set>
     <set comment="spin 1">
      <set comment="kpoint 1">
       <r>  -29.7174    1.0000 </r>
       <r>  -29.7174    1.0000 </r>
       <r>  -29.5487    1.0000 </r>
       <r>  -29.5487    1.0000 </r>
       <r>  -29.5083    1.0000 </r>
       <r>  -29.4744    1.0000 </r>
       <r>  -14.7936    1.0000 </r>
       <r>  -13.5702    1.0000 </r>
       <r>  -12.8051    1.0000 </r>
       <r>  -12.8051    1.0000 </r>
       <r>   -2.4643    1.0000 </r>
       <r>   -2.0142    1.0000 </r>
       <r>   -1.6256    1.0000 </r>
       <r>   -0.4368    1.0000 </r>
       <r>   -0.4368    1.0000 </r>
       <r>    0.7899    1.0000 </r>
       <r>    0.7899    1.0000 </r>
       <r>    1.4426    1.0000 </r>
       <r>    2.7314    1.0000 </r>
       <r>    2.9569    1.0000 </r>
       <r>    2.9569    1.0000 </r>
       <r>    3.3891    1.0000 </r>
       <r>    5.1956    0.0000 </r>
       <r>    5.4707    0.0000 </r>
       <r>    5.7706    0.0000 </r>
       <r>    5.8634    0.0000 </r>
       <r>    5.8634    0.0000 </r>
       <r>    7.7836    0.0000 </r>
       <r>    7.9798    0.0000 </r>
       <r>   10.0256    0.0000 </r>
       <r>   10.0256    0.0000 </r>
       <r>   11.0076    0.0000 </r>
       <r>   11.1334    0.0000 </r>
       <r>   14.9251    0.0000 </r>
       <r>   14.9251    0.0000 </r>
       <r>   17.7035    0.0000 </r>
       <r>   18.9228    0.0000 </r>
       <r>   19.6828    0.0000 </r>
       <r>   21.4402    0.0000 </r>
       <r>   22.7077    0.0000 </r>
       <r>   22.7077    0.0000 </r>
       <r>   22.8335    0.0000 </r>
       <r>   24.9120    0.0000 </r>
       <r>   25.2449    0.0000 </r>
       <r>   25.2451    0.0000 </r>
       <r>   26.4155    0.0000 </r>
       <r>   27.4371    0.0000 </r>
       <r>   27.4371    0.0000 </r>
       <r>   28.3356    0.0000 </r>
       <r>   29.0172    0.0000 </r>
       <r>   29.0172    0.0000 </r>
       <r>   29.1541    0.0000 </r>
       <r>   29.6641    0.0000 </r>
       <r>   29.6641    0.0000 </r>
       <r>   30.1654    0.0000 </r>
       <r>   32.1814    0.0000 </r>
       <r>   34.7633    0.0000 </r>
       <r>   35.4250    0.0000 </r>
       <r>   35.7950    0.0000 </r>
       <r>   35.7950    0.0000 </r>
       <r>   35.9307    0.0000 </r>
       <r>   37.4244    0.0000 </r>
       <r>   37.5460    0.0000 </r>
       <r>   37.5460    0.0000 </r>
       <r>   39.3142    0.0000 </r>
       <r>   40.4585    0.0000 </r>
       <r>   40.4585    0.0000 </r>
       <r>   40.9066    0.0000 </r>
       <r>   43.0628    0.0000 </r>
       <r>   43.6137    0.0000 </r>
       <r>   43.6137    0.0000 </r>
       <r>   44.2730    0.0000 </r>
       <r>   44.6464    0.0000 </r>
       <r>   44.6481    0.0000 </r>
       <r>   46.2236    0.0000 </r>
       <r>   46.2236    0.0000 </r>
       <r>   46.9845    0.0000 </r>
       <r>   47.1168    0.0000 </r>
       <r>   47.1168    0.0000 </r>
       <r>   47.5669    0.0000 </r>
       <r>   49.7935    0.0000 </r>
       <r>   50.0161    0.0000 </r>
       <r>   51.7887    0.0000 </r>
       <r>   52.9722    0.0000 </r>
       <r>   52.9722    0.0000 </r>
       <r>   53.4525    0.0000 </r>
       <r>   55.2129    0.0000 </r>
       <r>   55.6959    0.0000 </r>
       <r>   55.6970    0.0000 </r>
       <r>   56.2082    0.0000 </r>
       <r>   56.2084    0.0000 </r>
       <r>   56.8417    0.0000 </r>
       <r>   57.2986    0.0000 </r>
       <r>   57.3086    0.0000 </r>
       <r>   57.3752    0.0000 </r>
       <r>   58.3082    0.0000 </r>
      </set>
      <set comment="kpoint 2">
       <r>  -29.7084    1.0000 </r>
       <r>  -29.7076    1.0000 </r>
       <r>  -29.5597    1.0000 </r>
       <r>  -29.5588    1.0000 </r>
       <r>  -29.5061    1.0000 </r>
       <r>  -29.4767    1.0000 </r>
       <r>  -14.6923    1.0000 </r>
       <r>  -13.5776    1.0000 </r>
       <r>  -12.9048    1.0000 </r>
       <r>  -12.8441    1.0000 </r>
       <r>   -2.2825    1.0000 </r>
       <r>   -1.9043    1.0000 </r>
       <r>   -1.4414    1.0000 </r>
       <r>   -0.4254    1.0000 </r>
       <r>   -0.4174    1.0000 </r>
       <r>    0.6185    1.0000 </r>
       <r>    0.7459    1.0000 </r>
       <r>    1.4550    1.0000 </r>
       <r>    2.4458    1.0000 </r>
       <r>    2.5495    1.0000 </r>
       <r>    2.7284    1.0000 </r>
       <r>    3.2922    1.0000 </r>
       <r>    5.3521    0.0000 </r>
       <r>    5.6719    0.0000 </r>
       <r>    5.9750    0.0000 </r>
       <r>    5.9763    0.0000 </r>
       <r>    6.0210    0.0000 </r>
       <r>    7.8303    0.0000 </r>
       <r>    8.0014    0.0000 </r>
       <r>    9.9313    0.0000 </r>
       <r>    9.9516    0.0000 </r>
       <r>   10.8483    0.0000 </r>
       <r>   11.4606    0.0000 </r>
       <r>   14.8283    0.0000 </r>
       <r>   15.1336    0.0000 </r>
       <r>   17.7462    0.0000 </r>
       <r>   18.7289    0.0000 </r>
       <r>   19.5551    0.0000 </r>
       <r>   21.3177    0.0000 </r>
       <r>   22.6421    0.0000 </r>
       <r>   23.0890    0.0000 </r>
       <r>   23.1111    0.0000 </r>
       <r>   25.1716    0.0000 </r>
       <r>   25.2446    0.0000 </r>
       <r>   25.2451    0.0000 </r>
       <r>   25.9906    0.0000 </r>
       <r>   26.2718    0.0000 </r>
       <r>   26.5161    0.0000 </r>
       <r>   27.5074    0.0000 </r>
       <r>   29.0904    0.0000 </r>
       <r>   29.1671    0.0000 </r>
       <r>   29.3225    0.0000 </r>
       <r>   29.8262    0.0000 </r>
       <r>   30.0941    0.0000 </r>
       <r>   32.1876    0.0000 </r>
       <r>   32.3979    0.0000 </r>
       <r>   34.2365    0.0000 </r>
       <r>   35.1072    0.0000 </r>
       <r>   35.6373    0.0000 </r>
       <r>   35.8409    0.0000 </r>
       <r>   36.4346    0.0000 </r>
       <r>   37.2762    0.0000 </r>
       <r>   37.7827    0.0000 </r>
       <r>   38.6536    0.0000 </r>
       <r>   39.2969    0.0000 </r>
       <r>   40.5858    0.0000 </r>
       <r>   40.7210    0.0000 </r>
       <r>   41.3821    0.0000 </r>
       <r>   42.8425    0.0000 </r>
       <r>   42.8621    0.0000 </r>
       <r>   43.0253    0.0000 </r>
       <r>   43.8331    0.0000 </r>
       <r>   44.2836    0.0000 </r>
       <r>   44.6552    0.0000 </r>
       <r>   45.8521    0.0000 </r>
       <r>   45.9792    0.0000 </r>
       <r>   46.9709    0.0000 </r>
       <r>   47.2150    0.0000 </r>
       <r>   48.1231    0.0000 </r>
       <r>   48.2095    0.0000 </r>
       <r>   49.4258    0.0000 </r>
       <r>   50.8050    0.0000 </r>
       <r>   51.9238    0.0000 </r>
       <r>   52.3775    0.0000 </r>
       <r>   53.3643    0.0000 </r>
       <r>   53.5436    0.0000 </r>
       <r>   53.5566    0.0000 </r>
       <r>   54.2680    0.0000 </r>
       <r>   55.2940    0.0000 </r>
       <r>   55.4315    0.0000 </r>
       <r>   56.1658    0.0000 </r>
       <r>   56.7837    0.0000 </r>
       <r>   56.8173    0.0000 </r>
       <r>   56.8504    0.0000 </r>
       <r>   58.5779    0.0000 </r>
       <r>   58.9452    0.0000 </r>
      </set>
      <set comment="kpoint 3">
       <r>  -29.6844    1.0000 </r>
       <r>  -29.6821    1.0000 </r>
       <r>  -29.5874    1.0000 </r>
       <r>  -29.5850    1.0000 </r>
       <r>  -29.4998    1.0000 </r>
       <r>  -29.4829    1.0000 </r>
       <r>  -14.4114    1.0000 </r>
       <r>  -13.6896    1.0000 </r>
       <r>  -13.0606    1.0000 </r>
       <r>  -12.9419    1.0000 </r>
       <r>   -1.8915    1.0000 </r>
       <r>   -1.6645    1.0000 </r>
       <r>   -0.8442    1.0000 </r>
       <r>   -0.3978    1.0000 </r>
       <r>   -0.3830    1.0000 </r>
       <r>    0.2897    1.0000 </r>
       <r>    0.5310    1.0000 </r>
       <r>    1.3620    1.0000 </r>
       <r>    1.5405    1.0000 </r>
       <r>    2.1550    1.0000 </r>
       <r>    2.5002    1.0000 </r>
       <r>    2.9884    1.0000 </r>
       <r>    5.6513    0.0000 </r>
       <r>    5.8979    0.0000 </r>
       <r>    6.2249    0.0000 </r>
       <r>    6.3018    0.0000 </r>
       <r>    6.4284    0.0000 </r>
       <r>    7.4546    0.0000 </r>
       <r>    8.6292    0.0000 </r>
       <r>    9.7435    0.0000 </r>
       <r>    9.7823    0.0000 </r>
       <r>   10.2977    0.0000 </r>
       <r>   12.3521    0.0000 </r>
       <r>   14.3447    0.0000 </r>
       <r>   15.7654    0.0000 </r>
       <r>   17.6081    0.0000 </r>
       <r>   18.5732    0.0000 </r>
       <r>   19.3438    0.0000 </r>
       <r>   21.2105    0.0000 </r>
       <r>   22.6890    0.0000 </r>
       <r>   22.7952    0.0000 </r>
       <r>   23.8067    0.0000 </r>
       <r>   24.4882    0.0000 </r>
       <r>   25.2446    0.0000 </r>
       <r>   25.2451    0.0000 </r>
       <r>   25.7500    0.0000 </r>
       <r>   25.8743    0.0000 </r>
       <r>   25.8774    0.0000 </r>
       <r>   27.5904    0.0000 </r>
       <r>   27.9471    0.0000 </r>
       <r>   29.2788    0.0000 </r>
       <r>   29.2915    0.0000 </r>
       <r>   30.3070    0.0000 </r>
       <r>   30.7085    0.0000 </r>
       <r>   32.2243    0.0000 </r>
       <r>   32.4358    0.0000 </r>
       <r>   34.9539    0.0000 </r>
       <r>   35.0802    0.0000 </r>
       <r>   36.0391    0.0000 </r>
       <r>   36.8238    0.0000 </r>
       <r>   36.8464    0.0000 </r>
       <r>   37.7132    0.0000 </r>
       <r>   38.1625    0.0000 </r>
       <r>   39.8839    0.0000 </r>
       <r>   40.2870    0.0000 </r>
       <r>   40.6361    0.0000 </r>
       <r>   40.7680    0.0000 </r>
       <r>   41.4904    0.0000 </r>
       <r>   41.8352    0.0000 </r>
       <r>   42.0678    0.0000 </r>
       <r>   43.2713    0.0000 </r>
       <r>   44.0451    0.0000 </r>
       <r>   44.1473    0.0000 </r>
       <r>   44.1719    0.0000 </r>
       <r>   45.2330    0.0000 </r>
       <r>   45.7023    0.0000 </r>
       <r>   45.7785    0.0000 </r>
       <r>   46.5088    0.0000 </r>
       <r>   48.2809    0.0000 </r>
       <r>   48.4883    0.0000 </r>
       <r>   49.8378    0.0000 </r>
       <r>   50.0012    0.0000 </r>
       <r>   50.5855    0.0000 </r>
       <r>   52.4412    0.0000 </r>
       <r>   52.5484    0.0000 </r>
       <r>   53.2017    0.0000 </r>
       <r>   54.5281    0.0000 </r>
       <r>   54.7325    0.0000 </r>
       <r>   54.8067    0.0000 </r>
       <r>   55.1189    0.0000 </r>
       <r>   55.7007    0.0000 </r>
       <r>   56.6242    0.0000 </r>
       <r>   57.4011    0.0000 </r>
       <r>   57.9852    0.0000 </r>
       <r>   58.5924    0.0000 </r>
       <r>   59.1304    0.0000 </r>
      </set>
      <set comment="kpoint 4">
       <r>  -29.6630    1.0000 </r>
       <r>  -29.6630    1.0000 </r>
       <r>  -29.6076    1.0000 </r>
       <r>  -29.6076    1.0000 </r>
       <r>  -29.4913    1.0000 </r>
       <r>  -29.4913    1.0000 </r>
       <r>  -14.0248    1.0000 </r>
       <r>  -14.0248    1.0000 </r>
       <r>  -13.0476    1.0000 </r>
       <r>  -13.0476    1.0000 </r>
       <r>   -1.6011    1.0000 </r>
       <r>   -1.6011    1.0000 </r>
       <r>   -0.3750    1.0000 </r>
       <r>   -0.3750    1.0000 </r>
       <r>    0.0877    1.0000 </r>
       <r>    0.0877    1.0000 </r>
       <r>    0.3071    1.0000 </r>
       <r>    0.3071    1.0000 </r>
       <r>    1.7763    1.0000 </r>
       <r>    1.7763    1.0000 </r>
       <r>    2.6429    1.0000 </r>
       <r>    2.6429    1.0000 </r>
       <r>    5.8752    0.0000 </r>
       <r>    5.8752    0.0000 </r>
       <r>    6.3971    0.0000 </r>
       <r>    6.3971    0.0000 </r>
       <r>    6.9536    0.0000 </r>
       <r>    6.9536    0.0000 </r>
       <r>    9.4900    0.0000 </r>
       <r>    9.4900    0.0000 </r>
       <r>    9.6670    0.0000 </r>
       <r>    9.6670    0.0000 </r>
       <r>   13.4240    0.0000 </r>
       <r>   13.4240    0.0000 </r>
       <r>   16.7169    0.0000 </r>
       <r>   16.7169    0.0000 </r>
       <r>   19.0308    0.0000 </r>
       <r>   19.0308    0.0000 </r>
       <r>   21.6465    0.0000 </r>
       <r>   21.6465    0.0000 </r>
       <r>   23.2406    0.0000 </r>
       <r>   23.2406    0.0000 </r>
       <r>   24.8129    0.0000 </r>
       <r>   24.8129    0.0000 </r>
       <r>   25.2450    0.0000 </r>
       <r>   25.2450    0.0000 </r>
       <r>   26.8402    0.0000 </r>
       <r>   26.8402    0.0000 </r>
       <r>   27.1188    0.0000 </r>
       <r>   27.1188    0.0000 </r>
       <r>   29.1611    0.0000 </r>
       <r>   29.1611    0.0000 </r>
       <r>   31.1360    0.0000 </r>
       <r>   31.1360    0.0000 </r>
       <r>   31.3038    0.0000 </r>
       <r>   31.3038    0.0000 </r>
       <r>   36.0497    0.0000 </r>
       <r>   36.0497    0.0000 </r>
       <r>   36.4647    0.0000 </r>
       <r>   36.4647    0.0000 </r>
       <r>   37.1121    0.0000 </r>
       <r>   37.1121    0.0000 </r>
       <r>   39.6171    0.0000 </r>
       <r>   39.6171    0.0000 </r>
       <r>   41.1443    0.0000 </r>
       <r>   41.1443    0.0000 </r>
       <r>   41.3921    0.0000 </r>
       <r>   41.3921    0.0000 </r>
       <r>   42.5363    0.0000 </r>
       <r>   42.5363    0.0000 </r>
       <r>   42.5479    0.0000 </r>
       <r>   42.5479    0.0000 </r>
       <r>   44.2297    0.0000 </r>
       <r>   44.2297    0.0000 </r>
       <r>   44.6023    0.0000 </r>
       <r>   44.6023    0.0000 </r>
       <r>   45.7265    0.0000 </r>
       <r>   45.7265    0.0000 </r>
       <r>   47.5967    0.0000 </r>
       <r>   47.5967    0.0000 </r>
       <r>   50.4120    0.0000 </r>
       <r>   50.4120    0.0000 </r>
       <r>   50.6620    0.0000 </r>
       <r>   50.6620    0.0000 </r>
       <r>   54.0184    0.0000 </r>
       <r>   54.0185    0.0000 </r>
       <r>   54.5444    0.0000 </r>
       <r>   54.5444    0.0000 </r>
       <r>   55.8288    0.0000 </r>
       <r>   55.8289    0.0000 </r>
       <r>   56.1563    0.0000 </r>
       <r>   56.1564    0.0000 </r>
       <r>   56.2294    0.0000 </r>
       <r>   56.2297    0.0000 </r>
       <r>   59.5638    0.0000 </r>
       <r>   59.5697    0.0000 </r>
      </set>
      <set comment="kpoint 5">
       <r>  -29.7206    1.0000 </r>
       <r>  -29.6807    1.0000 </r>
       <r>  -29.5881    1.0000 </r>
       <r>  -29.5467    1.0000 </r>
       <r>  -29.5041    1.0000 </r>
       <r>  -29.4786    1.0000 </r>
       <r>  -14.6067    1.0000 </r>
       <r>  -13.5986    1.0000 </r>
       <r>  -13.0003    1.0000 </r>
       <r>  -12.8401    1.0000 </r>
       <r>   -2.2767    1.0000 </r>
       <r>   -1.6982    1.0000 </r>
       <r>   -1.2797    1.0000 </r>
       <r>   -0.4545    1.0000 </r>
       <r>   -0.3801    1.0000 </r>
       <r>    0.4019    1.0000 </r>
       <r>    0.8422    1.0000 </r>
       <r>    1.4811    1.0000 </r>
       <r>    2.1008    1.0000 </r>
       <r>    2.4532    1.0000 </r>
       <r>    2.5895    1.0000 </r>
       <r>    3.2229    1.0000 </r>
       <r>    5.2687    0.0000 </r>
       <r>    5.8416    0.0000 </r>
       <r>    5.8685    0.0000 </r>
       <r>    6.1693    0.0000 </r>
       <r>    6.2654    0.0000 </r>
       <r>    7.7372    0.0000 </r>
       <r>    8.1495    0.0000 </r>
       <r>    9.7630    0.0000 </r>
       <r>   10.0228    0.0000 </r>
       <r>   10.6586    0.0000 </r>
       <r>   11.8164    0.0000 </r>
       <r>   14.9771    0.0000 </r>
       <r>   15.0964    0.0000 </r>
       <r>   17.7855    0.0000 </r>
       <r>   18.5019    0.0000 </r>
       <r>   19.3509    0.0000 </r>
       <r>   21.2751    0.0000 </r>
       <r>   22.5694    0.0000 </r>
       <r>   23.3371    0.0000 </r>
       <r>   23.5668    0.0000 </r>
       <r>   25.2445    0.0000 </r>
       <r>   25.2451    0.0000 </r>
       <r>   25.3862    0.0000 </r>
       <r>   25.7562    0.0000 </r>
       <r>   26.1771    0.0000 </r>
       <r>   26.1826    0.0000 </r>
       <r>   26.3030    0.0000 </r>
       <r>   28.2416    0.0000 </r>
       <r>   28.8003    0.0000 </r>
       <r>   29.7325    0.0000 </r>
       <r>   30.6252    0.0000 </r>
       <r>   30.9155    0.0000 </r>
       <r>   32.6470    0.0000 </r>
       <r>   33.0410    0.0000 </r>
       <r>   33.5813    0.0000 </r>
       <r>   34.9027    0.0000 </r>
       <r>   35.3535    0.0000 </r>
       <r>   36.5130    0.0000 </r>
       <r>   36.6346    0.0000 </r>
       <r>   37.2212    0.0000 </r>
       <r>   38.2554    0.0000 </r>
       <r>   38.7938    0.0000 </r>
       <r>   39.2084    0.0000 </r>
       <r>   40.6668    0.0000 </r>
       <r>   41.0200    0.0000 </r>
       <r>   41.5754    0.0000 </r>
       <r>   42.1317    0.0000 </r>
       <r>   42.5652    0.0000 </r>
       <r>   43.3343    0.0000 </r>
       <r>   43.6084    0.0000 </r>
       <r>   44.3347    0.0000 </r>
       <r>   44.9184    0.0000 </r>
       <r>   45.0814    0.0000 </r>
       <r>   46.3887    0.0000 </r>
       <r>   47.3221    0.0000 </r>
       <r>   47.3834    0.0000 </r>
       <r>   48.2833    0.0000 </r>
       <r>   48.3879    0.0000 </r>
       <r>   48.9606    0.0000 </r>
       <r>   51.2801    0.0000 </r>
       <r>   51.4989    0.0000 </r>
       <r>   51.9826    0.0000 </r>
       <r>   52.6861    0.0000 </r>
       <r>   53.2959    0.0000 </r>
       <r>   53.5642    0.0000 </r>
       <r>   53.9350    0.0000 </r>
       <r>   54.6082    0.0000 </r>
       <r>   55.4857    0.0000 </r>
       <r>   55.5121    0.0000 </r>
       <r>   56.1733    0.0000 </r>
       <r>   57.1250    0.0000 </r>
       <r>   57.3778    0.0000 </r>
       <r>   58.3880    0.0000 </r>
       <r>   58.9083    0.0000 </r>
      </set>
      <set comment="kpoint 6">
       <r>  -29.7134    1.0000 </r>
       <r>  -29.6634    1.0000 </r>
       <r>  -29.6072    1.0000 </r>
       <r>  -29.5557    1.0000 </r>
       <r>  -29.4987    1.0000 </r>
       <r>  -29.4840    1.0000 </r>
       <r>  -14.3705    1.0000 </r>
       <r>  -13.7417    1.0000 </r>
       <r>  -13.0777    1.0000 </r>
       <r>  -12.9113    1.0000 </r>
       <r>   -2.1060    1.0000 </r>
       <r>   -1.5443    1.0000 </r>
       <r>   -0.7574    1.0000 </r>
       <r>   -0.4494    1.0000 </r>
       <r>   -0.3744    1.0000 </r>
       <r>    0.2981    1.0000 </r>
       <r>    0.6978    1.0000 </r>
       <r>    1.4982    1.0000 </r>
       <r>    1.6041    1.0000 </r>
       <r>    2.1885    1.0000 </r>
       <r>    2.2846    1.0000 </r>
       <r>    2.8960    1.0000 </r>
       <r>    5.4464    0.0000 </r>
       <r>    5.9122    0.0000 </r>
       <r>    6.0020    0.0000 </r>
       <r>    6.4021    0.0000 </r>
       <r>    6.5790    0.0000 </r>
       <r>    7.4473    0.0000 </r>
       <r>    8.6619    0.0000 </r>
       <r>    9.6651    0.0000 </r>
       <r>    9.9385    0.0000 </r>
       <r>   10.1322    0.0000 </r>
       <r>   12.6667    0.0000 </r>
       <r>   14.5385    0.0000 </r>
       <r>   15.7120    0.0000 </r>
       <r>   17.6154    0.0000 </r>
       <r>   18.2787    0.0000 </r>
       <r>   19.0179    0.0000 </r>
       <r>   21.2516    0.0000 </r>
       <r>   22.3136    0.0000 </r>
       <r>   23.6729    0.0000 </r>
       <r>   24.0287    0.0000 </r>
       <r>   24.6895    0.0000 </r>
       <r>   25.2446    0.0000 </r>
       <r>   25.2450    0.0000 </r>
       <r>   25.6549    0.0000 </r>
       <r>   25.7864    0.0000 </r>
       <r>   25.9788    0.0000 </r>
       <r>   26.3733    0.0000 </r>
       <r>   27.8180    0.0000 </r>
       <r>   28.3138    0.0000 </r>
       <r>   30.0859    0.0000 </r>
       <r>   30.3351    0.0000 </r>
       <r>   31.7320    0.0000 </r>
       <r>   32.1202    0.0000 </r>
       <r>   33.0680    0.0000 </r>
       <r>   34.7478    0.0000 </r>
       <r>   35.0494    0.0000 </r>
       <r>   35.4627    0.0000 </r>
       <r>   36.2142    0.0000 </r>
       <r>   37.2271    0.0000 </r>
       <r>   38.0975    0.0000 </r>
       <r>   38.8392    0.0000 </r>
       <r>   39.2163    0.0000 </r>
       <r>   40.0885    0.0000 </r>
       <r>   40.3351    0.0000 </r>
       <r>   41.0376    0.0000 </r>
       <r>   41.4927    0.0000 </r>
       <r>   41.9450    0.0000 </r>
       <r>   43.0425    0.0000 </r>
       <r>   43.2391    0.0000 </r>
       <r>   43.6469    0.0000 </r>
       <r>   44.4333    0.0000 </r>
       <r>   44.6926    0.0000 </r>
       <r>   44.9464    0.0000 </r>
       <r>   46.0398    0.0000 </r>
       <r>   46.1240    0.0000 </r>
       <r>   47.0911    0.0000 </r>
       <r>   47.9082    0.0000 </r>
       <r>   48.4136    0.0000 </r>
       <r>   49.1074    0.0000 </r>
       <r>   50.2781    0.0000 </r>
       <r>   50.8612    0.0000 </r>
       <r>   51.9564    0.0000 </r>
       <r>   52.2061    0.0000 </r>
       <r>   52.6758    0.0000 </r>
       <r>   53.0888    0.0000 </r>
       <r>   53.7705    0.0000 </r>
       <r>   54.0995    0.0000 </r>
       <r>   55.4067    0.0000 </r>
       <r>   56.0178    0.0000 </r>
       <r>   57.1594    0.0000 </r>
       <r>   57.8043    0.0000 </r>
       <r>   58.1234    0.0000 </r>
       <r>   58.3569    0.0000 </r>
       <r>   59.5034    0.0000 </r>
      </set>
      <set comment="kpoint 7">
       <r>  -29.6885    1.0000 </r>
       <r>  -29.6885    1.0000 </r>
       <r>  -29.5822    1.0000 </r>
       <r>  -29.5822    1.0000 </r>
       <r>  -29.4913    1.0000 </r>
       <r>  -29.4913    1.0000 </r>
       <r>  -14.0446    1.0000 </r>
       <r>  -14.0446    1.0000 </r>
       <r>  -13.0196    1.0000 </r>
       <r>  -13.0196    1.0000 </r>
       <r>   -1.7811    1.0000 </r>
       <r>   -1.7811    1.0000 </r>
       <r>   -0.4106    1.0000 </r>
       <r>   -0.4106    1.0000 </r>
       <r>   -0.0215    1.0000 </r>
       <r>   -0.0215    1.0000 </r>
       <r>    0.8238    1.0000 </r>
       <r>    0.8238    1.0000 </r>
       <r>    1.8613    1.0000 </r>
       <r>    1.8613    1.0000 </r>
       <r>    2.4540    1.0000 </r>
       <r>    2.4540    1.0000 </r>
       <r>    5.7479    0.0000 </r>
       <r>    5.7479    0.0000 </r>
       <r>    6.2659    0.0000 </r>
       <r>    6.2659    0.0000 </r>
       <r>    7.0341    0.0000 </r>
       <r>    7.0341    0.0000 </r>
       <r>    9.4015    0.0000 </r>
       <r>    9.4015    0.0000 </r>
       <r>    9.7610    0.0000 </r>
       <r>    9.7610    0.0000 </r>
       <r>   13.6682    0.0000 </r>
       <r>   13.6682    0.0000 </r>
       <r>   16.6841    0.0000 </r>
       <r>   16.6841    0.0000 </r>
       <r>   18.6688    0.0000 </r>
       <r>   18.6688    0.0000 </r>
       <r>   21.6502    0.0000 </r>
       <r>   21.6502    0.0000 </r>
       <r>   23.7070    0.0000 </r>
       <r>   23.7070    0.0000 </r>
       <r>   24.9741    0.0000 </r>
       <r>   24.9741    0.0000 </r>
       <r>   25.2449    0.0000 </r>
       <r>   25.2449    0.0000 </r>
       <r>   26.3604    0.0000 </r>
       <r>   26.3604    0.0000 </r>
       <r>   26.8097    0.0000 </r>
       <r>   26.8097    0.0000 </r>
       <r>   29.1626    0.0000 </r>
       <r>   29.1626    0.0000 </r>
       <r>   30.8873    0.0000 </r>
       <r>   30.8873    0.0000 </r>
       <r>   32.3392    0.0000 </r>
       <r>   32.3392    0.0000 </r>
       <r>   35.7411    0.0000 </r>
       <r>   35.7411    0.0000 </r>
       <r>   36.1279    0.0000 </r>
       <r>   36.1279    0.0000 </r>
       <r>   36.9720    0.0000 </r>
       <r>   36.9720    0.0000 </r>
       <r>   39.9126    0.0000 </r>
       <r>   39.9126    0.0000 </r>
       <r>   40.6897    0.0000 </r>
       <r>   40.6897    0.0000 </r>
       <r>   41.4799    0.0000 </r>
       <r>   41.4799    0.0000 </r>
       <r>   42.3592    0.0000 </r>
       <r>   42.3592    0.0000 </r>
       <r>   43.7840    0.0000 </r>
       <r>   43.7840    0.0000 </r>
       <r>   44.4301    0.0000 </r>
       <r>   44.4301    0.0000 </r>
       <r>   44.8331    0.0000 </r>
       <r>   44.8331    0.0000 </r>
       <r>   45.6329    0.0000 </r>
       <r>   45.6330    0.0000 </r>
       <r>   47.5924    0.0000 </r>
       <r>   47.5924    0.0000 </r>
       <r>   50.2527    0.0000 </r>
       <r>   50.2527    0.0000 </r>
       <r>   51.1664    0.0000 </r>
       <r>   51.1664    0.0000 </r>
       <r>   52.2756    0.0000 </r>
       <r>   52.2756    0.0000 </r>
       <r>   53.0867    0.0000 </r>
       <r>   53.0867    0.0000 </r>
       <r>   55.5198    0.0000 </r>
       <r>   55.5199    0.0000 </r>
       <r>   56.8314    0.0000 </r>
       <r>   56.8318    0.0000 </r>
       <r>   58.1559    0.0000 </r>
       <r>   58.1594    0.0000 </r>
       <r>   59.3050    0.0000 </r>
       <r>   59.7676    0.0000 </r>
      </set>
      <set comment="kpoint 8">
       <r>  -29.7271    1.0000 </r>
       <r>  -29.6912    1.0000 </r>
       <r>  -29.5802    1.0000 </r>
       <r>  -29.5427    1.0000 </r>
       <r>  -29.4955    1.0000 </r>
       <r>  -29.4870    1.0000 </r>
       <r>  -14.2540    1.0000 </r>
       <r>  -13.8902    1.0000 </r>
       <r>  -13.0451    1.0000 </r>
       <r>  -12.9078    1.0000 </r>
       <r>   -2.2252    1.0000 </r>
       <r>   -1.7598    1.0000 </r>
       <r>   -0.4897    1.0000 </r>
       <r>   -0.4204    1.0000 </r>
       <r>   -0.3794    1.0000 </r>
       <r>    0.5037    1.0000 </r>
       <r>    1.0038    1.0000 </r>
       <r>    1.5644    1.0000 </r>
       <r>    1.7932    1.0000 </r>
       <r>    1.8591    1.0000 </r>
       <r>    2.1861    1.0000 </r>
       <r>    2.7031    1.0000 </r>
       <r>    5.2499    0.0000 </r>
       <r>    5.7497    0.0000 </r>
       <r>    5.8796    0.0000 </r>
       <r>    6.2701    0.0000 </r>
       <r>    6.8880    0.0000 </r>
       <r>    7.3682    0.0000 </r>
       <r>    8.8661    0.0000 </r>
       <r>    9.7248    0.0000 </r>
       <r>    9.7590    0.0000 </r>
       <r>   10.0173    0.0000 </r>
       <r>   13.3935    0.0000 </r>
       <r>   14.7555    0.0000 </r>
       <r>   15.7617    0.0000 </r>
       <r>   17.3587    0.0000 </r>
       <r>   17.9554    0.0000 </r>
       <r>   18.5186    0.0000 </r>
       <r>   21.3399    0.0000 </r>
       <r>   22.0719    0.0000 </r>
       <r>   24.4153    0.0000 </r>
       <r>   24.6274    0.0000 </r>
       <r>   24.8688    0.0000 </r>
       <r>   25.1030    0.0000 </r>
       <r>   25.1902    0.0000 </r>
       <r>   25.2451    0.0000 </r>
       <r>   25.2464    0.0000 </r>
       <r>   25.7605    0.0000 </r>
       <r>   26.2682    0.0000 </r>
       <r>   27.3513    0.0000 </r>
       <r>   28.4368    0.0000 </r>
       <r>   29.9274    0.0000 </r>
       <r>   30.7951    0.0000 </r>
       <r>   31.2604    0.0000 </r>
       <r>   32.8928    0.0000 </r>
       <r>   33.7299    0.0000 </r>
       <r>   34.5542    0.0000 </r>
       <r>   35.0913    0.0000 </r>
       <r>   35.4788    0.0000 </r>
       <r>   35.9963    0.0000 </r>
       <r>   36.4974    0.0000 </r>
       <r>   37.3995    0.0000 </r>
       <r>   39.5677    0.0000 </r>
       <r>   40.3493    0.0000 </r>
       <r>   40.4068    0.0000 </r>
       <r>   40.6708    0.0000 </r>
       <r>   41.3589    0.0000 </r>
       <r>   41.4823    0.0000 </r>
       <r>   41.8258    0.0000 </r>
       <r>   43.1770    0.0000 </r>
       <r>   44.0273    0.0000 </r>
       <r>   44.1020    0.0000 </r>
       <r>   44.5028    0.0000 </r>
       <r>   44.8026    0.0000 </r>
       <r>   45.4649    0.0000 </r>
       <r>   45.6926    0.0000 </r>
       <r>   46.6988    0.0000 </r>
       <r>   47.2379    0.0000 </r>
       <r>   47.3682    0.0000 </r>
       <r>   47.4163    0.0000 </r>
       <r>   48.2251    0.0000 </r>
       <r>   50.4652    0.0000 </r>
       <r>   50.4877    0.0000 </r>
       <r>   50.7446    0.0000 </r>
       <r>   51.6939    0.0000 </r>
       <r>   51.7734    0.0000 </r>
       <r>   52.7953    0.0000 </r>
       <r>   53.8698    0.0000 </r>
       <r>   54.2235    0.0000 </r>
       <r>   55.4511    0.0000 </r>
       <r>   55.5764    0.0000 </r>
       <r>   57.0564    0.0000 </r>
       <r>   57.9592    0.0000 </r>
       <r>   57.9895    0.0000 </r>
       <r>   58.6944    0.0000 </r>
       <r>   59.2297    0.0000 </r>
      </set>
      <set comment="kpoint 9">
       <r>  -29.7187    1.0000 </r>
       <r>  -29.7187    1.0000 </r>
       <r>  -29.5522    1.0000 </r>
       <r>  -29.5522    1.0000 </r>
       <r>  -29.4913    1.0000 </r>
       <r>  -29.4913    1.0000 </r>
       <r>  -14.0813    1.0000 </r>
       <r>  -14.0813    1.0000 </r>
       <r>  -12.9660    1.0000 </r>
       <r>  -12.9660    1.0000 </r>
       <r>   -2.0872    1.0000 </r>
       <r>   -2.0872    1.0000 </r>
       <r>   -0.4765    1.0000 </r>
       <r>   -0.4765    1.0000 </r>
       <r>    0.2142    1.0000 </r>
       <r>    0.2142    1.0000 </r>
       <r>    1.2842    1.0000 </r>
       <r>    1.2842    1.0000 </r>
       <r>    2.0336    1.0000 </r>
       <r>    2.0336    1.0000 </r>
       <r>    2.2104    1.0000 </r>
       <r>    2.2104    1.0000 </r>
       <r>    5.4318    0.0000 </r>
       <r>    5.4318    0.0000 </r>
       <r>    6.0112    0.0000 </r>
       <r>    6.0112    0.0000 </r>
       <r>    7.1737    0.0000 </r>
       <r>    7.1737    0.0000 </r>
       <r>    9.2564    0.0000 </r>
       <r>    9.2564    0.0000 </r>
       <r>    9.9341    0.0000 </r>
       <r>    9.9341    0.0000 </r>
       <r>   14.2064    0.0000 </r>
       <r>   14.2064    0.0000 </r>
       <r>   16.5158    0.0000 </r>
       <r>   16.5158    0.0000 </r>
       <r>   18.1623    0.0000 </r>
       <r>   18.1623    0.0000 </r>
       <r>   21.6716    0.0000 </r>
       <r>   21.6716    0.0000 </r>
       <r>   24.3471    0.0000 </r>
       <r>   24.3471    0.0000 </r>
       <r>   25.1858    0.0000 </r>
       <r>   25.1858    0.0000 </r>
       <r>   25.2468    0.0000 </r>
       <r>   25.2468    0.0000 </r>
       <r>   25.3522    0.0000 </r>
       <r>   25.3522    0.0000 </r>
       <r>   26.7300    0.0000 </r>
       <r>   26.7300    0.0000 </r>
       <r>   29.8643    0.0000 </r>
       <r>   29.8643    0.0000 </r>
       <r>   30.3625    0.0000 </r>
       <r>   30.3625    0.0000 </r>
       <r>   33.1895    0.0000 </r>
       <r>   33.1895    0.0000 </r>
       <r>   35.4705    0.0000 </r>
       <r>   35.4705    0.0000 </r>
       <r>   35.5504    0.0000 </r>
       <r>   35.5504    0.0000 </r>
       <r>   36.5224    0.0000 </r>
       <r>   36.5224    0.0000 </r>
       <r>   40.5951    0.0000 </r>
       <r>   40.5951    0.0000 </r>
       <r>   40.7311    0.0000 </r>
       <r>   40.7311    0.0000 </r>
       <r>   41.1873    0.0000 </r>
       <r>   41.1873    0.0000 </r>
       <r>   43.3370    0.0000 </r>
       <r>   43.3370    0.0000 </r>
       <r>   44.3314    0.0000 </r>
       <r>   44.3314    0.0000 </r>
       <r>   44.8853    0.0000 </r>
       <r>   44.8853    0.0000 </r>
       <r>   45.0422    0.0000 </r>
       <r>   45.0422    0.0000 </r>
       <r>   45.8887    0.0000 </r>
       <r>   45.8887    0.0000 </r>
       <r>   47.6259    0.0000 </r>
       <r>   47.6259    0.0000 </r>
       <r>   48.9664    0.0000 </r>
       <r>   48.9664    0.0000 </r>
       <r>   49.8594    0.0000 </r>
       <r>   49.8594    0.0000 </r>
       <r>   52.6788    0.0000 </r>
       <r>   52.6788    0.0000 </r>
       <r>   53.4950    0.0000 </r>
       <r>   53.4950    0.0000 </r>
       <r>   54.1478    0.0000 </r>
       <r>   54.1478    0.0000 </r>
       <r>   57.2191    0.0000 </r>
       <r>   57.2195    0.0000 </r>
       <r>   57.2670    0.0000 </r>
       <r>   57.2672    0.0000 </r>
       <r>   60.2049    0.0000 </r>
       <r>   60.2305    0.0000 </r>
      </set>
      <set comment="kpoint 10">
       <r>  -29.7303    1.0000 </r>
       <r>  -29.7303    1.0000 </r>
       <r>  -29.5407    1.0000 </r>
       <r>  -29.5407    1.0000 </r>
       <r>  -29.4912    1.0000 </r>
       <r>  -29.4912    1.0000 </r>
       <r>  -14.0985    1.0000 </r>
       <r>  -14.0985    1.0000 </r>
       <r>  -12.9401    1.0000 </r>
       <r>  -12.9401    1.0000 </r>
       <r>   -2.2196    1.0000 </r>
       <r>   -2.2196    1.0000 </r>
       <r>   -0.5072    1.0000 </r>
       <r>   -0.5072    1.0000 </r>
       <r>    0.4915    1.0000 </r>
       <r>    0.4915    1.0000 </r>
       <r>    1.1489    1.0000 </r>
       <r>    1.1489    1.0000 </r>
       <r>    2.1219    1.0000 </r>
       <r>    2.1219    1.0000 </r>
       <r>    2.3222    1.0000 </r>
       <r>    2.3222    1.0000 </r>
       <r>    5.2283    0.0000 </r>
       <r>    5.2283    0.0000 </r>
       <r>    5.8855    0.0000 </r>
       <r>    5.8855    0.0000 </r>
       <r>    7.2330    0.0000 </r>
       <r>    7.2330    0.0000 </r>
       <r>    9.1993    0.0000 </r>
       <r>    9.1993    0.0000 </r>
       <r>   10.0147    0.0000 </r>
       <r>   10.0147    0.0000 </r>
       <r>   14.5288    0.0000 </r>
       <r>   14.5288    0.0000 </r>
       <r>   16.3476    0.0000 </r>
       <r>   16.3476    0.0000 </r>
       <r>   17.9853    0.0000 </r>
       <r>   17.9853    0.0000 </r>
       <r>   21.7256    0.0000 </r>
       <r>   21.7256    0.0000 </r>
       <r>   24.2398    0.0000 </r>
       <r>   24.2398    0.0000 </r>
       <r>   24.9792    0.0000 </r>
       <r>   24.9792    0.0000 </r>
       <r>   25.2453    0.0000 </r>
       <r>   25.2453    0.0000 </r>
       <r>   25.5874    0.0000 </r>
       <r>   25.5874    0.0000 </r>
       <r>   26.6690    0.0000 </r>
       <r>   26.6690    0.0000 </r>
       <r>   30.0778    0.0000 </r>
       <r>   30.0778    0.0000 </r>
       <r>   30.8046    0.0000 </r>
       <r>   30.8046    0.0000 </r>
       <r>   32.4928    0.0000 </r>
       <r>   32.4928    0.0000 </r>
       <r>   35.1689    0.0000 </r>
       <r>   35.1689    0.0000 </r>
       <r>   35.5763    0.0000 </r>
       <r>   35.5763    0.0000 </r>
       <r>   36.8777    0.0000 </r>
       <r>   36.8777    0.0000 </r>
       <r>   40.8732    0.0000 </r>
       <r>   40.8732    0.0000 </r>
       <r>   40.8741    0.0000 </r>
       <r>   40.8741    0.0000 </r>
       <r>   40.8980    0.0000 </r>
       <r>   40.8980    0.0000 </r>
       <r>   44.0204    0.0000 </r>
       <r>   44.0204    0.0000 </r>
       <r>   44.2867    0.0000 </r>
       <r>   44.2867    0.0000 </r>
       <r>   44.7766    0.0000 </r>
       <r>   44.7766    0.0000 </r>
       <r>   45.2700    0.0000 </r>
       <r>   45.2700    0.0000 </r>
       <r>   47.2248    0.0000 </r>
       <r>   47.2248    0.0000 </r>
       <r>   47.3211    0.0000 </r>
       <r>   47.3212    0.0000 </r>
       <r>   47.7008    0.0000 </r>
       <r>   47.7008    0.0000 </r>
       <r>   48.8685    0.0000 </r>
       <r>   48.8685    0.0000 </r>
       <r>   52.4576    0.0000 </r>
       <r>   52.4576    0.0000 </r>
       <r>   53.9180    0.0000 </r>
       <r>   53.9181    0.0000 </r>
       <r>   54.6376    0.0000 </r>
       <r>   54.6376    0.0000 </r>
       <r>   58.0052    0.0000 </r>
       <r>   58.0057    0.0000 </r>
       <r>   58.1047    0.0000 </r>
       <r>   58.1168    0.0000 </r>
       <r>   58.3700    0.0000 </r>
       <r>   58.3713    0.0000 </r>
      </set>
      <set comment="kpoint 11">
       <r>  -29.7031    1.0000 </r>
       <r>  -29.7031    1.0000 </r>
       <r>  -29.5648    1.0000 </r>
       <r>  -29.5459    1.0000 </r>
       <r>  -29.5459    1.0000 </r>
       <r>  -29.5338    1.0000 </r>
       <r>  -14.6571    1.0000 </r>
       <r>  -13.4917    1.0000 </r>
       <r>  -12.8690    1.0000 </r>
       <r>  -12.8690    1.0000 </r>
       <r>   -2.2789    1.0000 </r>
       <r>   -1.8736    1.0000 </r>
       <r>   -1.4804    1.0000 </r>
       <r>   -0.5986    1.0000 </r>
       <r>   -0.5986    1.0000 </r>
       <r>    1.0519    1.0000 </r>
       <r>    1.0613    1.0000 </r>
       <r>    1.0613    1.0000 </r>
       <r>    2.1964    1.0000 </r>
       <r>    2.7003    1.0000 </r>
       <r>    2.7003    1.0000 </r>
       <r>    3.3341    1.0000 </r>
       <r>    5.5167    0.0000 </r>
       <r>    5.6024    0.0000 </r>
       <r>    5.6823    0.0000 </r>
       <r>    6.0262    0.0000 </r>
       <r>    6.0262    0.0000 </r>
       <r>    7.8781    0.0000 </r>
       <r>    7.9739    0.0000 </r>
       <r>    9.8343    0.0000 </r>
       <r>    9.8343    0.0000 </r>
       <r>   10.8260    0.0000 </r>
       <r>   11.5183    0.0000 </r>
       <r>   15.4386    0.0000 </r>
       <r>   15.4386    0.0000 </r>
       <r>   17.7329    0.0000 </r>
       <r>   18.7887    0.0000 </r>
       <r>   19.8541    0.0000 </r>
       <r>   21.3825    0.0000 </r>
       <r>   22.0623    0.0000 </r>
       <r>   22.5562    0.0000 </r>
       <r>   22.5562    0.0000 </r>
       <r>   24.2494    0.0000 </r>
       <r>   25.2451    0.0000 </r>
       <r>   25.2451    0.0000 </r>
       <r>   26.5161    0.0000 </r>
       <r>   27.4415    0.0000 </r>
       <r>   27.4415    0.0000 </r>
       <r>   27.9642    0.0000 </r>
       <r>   27.9642    0.0000 </r>
       <r>   29.0295    0.0000 </r>
       <r>   29.9586    0.0000 </r>
       <r>   30.1504    0.0000 </r>
       <r>   30.5751    0.0000 </r>
       <r>   31.1220    0.0000 </r>
       <r>   31.1220    0.0000 </r>
       <r>   34.7482    0.0000 </r>
       <r>   34.7482    0.0000 </r>
       <r>   34.8999    0.0000 </r>
       <r>   35.9558    0.0000 </r>
       <r>   36.6089    0.0000 </r>
       <r>   37.7329    0.0000 </r>
       <r>   38.4165    0.0000 </r>
       <r>   38.4165    0.0000 </r>
       <r>   39.1111    0.0000 </r>
       <r>   40.8664    0.0000 </r>
       <r>   40.8664    0.0000 </r>
       <r>   41.6354    0.0000 </r>
       <r>   43.4020    0.0000 </r>
       <r>   43.4020    0.0000 </r>
       <r>   43.6114    0.0000 </r>
       <r>   43.6537    0.0000 </r>
       <r>   43.7149    0.0000 </r>
       <r>   43.8913    0.0000 </r>
       <r>   46.0779    0.0000 </r>
       <r>   46.0779    0.0000 </r>
       <r>   47.4499    0.0000 </r>
       <r>   47.4499    0.0000 </r>
       <r>   47.9376    0.0000 </r>
       <r>   48.4828    0.0000 </r>
       <r>   49.4782    0.0000 </r>
       <r>   49.8373    0.0000 </r>
       <r>   51.3671    0.0000 </r>
       <r>   52.1356    0.0000 </r>
       <r>   52.1356    0.0000 </r>
       <r>   54.1897    0.0000 </r>
       <r>   55.0793    0.0000 </r>
       <r>   55.0794    0.0000 </r>
       <r>   55.6276    0.0000 </r>
       <r>   56.3701    0.0000 </r>
       <r>   56.3703    0.0000 </r>
       <r>   57.3432    0.0000 </r>
       <r>   57.6813    0.0000 </r>
       <r>   57.8009    0.0000 </r>
       <r>   57.8043    0.0000 </r>
       <r>   58.6662    0.0000 </r>
      </set>
      <set comment="kpoint 12">
       <r>  -29.6952    1.0000 </r>
       <r>  -29.6937    1.0000 </r>
       <r>  -29.5665    1.0000 </r>
       <r>  -29.5621    1.0000 </r>
       <r>  -29.5509    1.0000 </r>
       <r>  -29.5300    1.0000 </r>
       <r>  -14.5608    1.0000 </r>
       <r>  -13.4929    1.0000 </r>
       <r>  -12.9663    1.0000 </r>
       <r>  -12.9038    1.0000 </r>
       <r>   -2.1099    1.0000 </r>
       <r>   -1.7599    1.0000 </r>
       <r>   -1.3377    1.0000 </r>
       <r>   -0.6082    1.0000 </r>
       <r>   -0.5185    1.0000 </r>
       <r>    0.8365    1.0000 </r>
       <r>    0.8733    1.0000 </r>
       <r>    1.2081    1.0000 </r>
       <r>    1.9021    1.0000 </r>
       <r>    2.4966    1.0000 </r>
       <r>    2.5465    1.0000 </r>
       <r>    3.2180    1.0000 </r>
       <r>    5.6307    0.0000 </r>
       <r>    5.8051    0.0000 </r>
       <r>    5.8145    0.0000 </r>
       <r>    6.0752    0.0000 </r>
       <r>    6.2083    0.0000 </r>
       <r>    7.7426    0.0000 </r>
       <r>    8.1637    0.0000 </r>
       <r>    9.6667    0.0000 </r>
       <r>    9.7586    0.0000 </r>
       <r>   10.7438    0.0000 </r>
       <r>   11.8498    0.0000 </r>
       <r>   15.2782    0.0000 </r>
       <r>   15.6156    0.0000 </r>
       <r>   17.8304    0.0000 </r>
       <r>   18.6942    0.0000 </r>
       <r>   19.6858    0.0000 </r>
       <r>   21.2694    0.0000 </r>
       <r>   22.0329    0.0000 </r>
       <r>   22.2885    0.0000 </r>
       <r>   23.1434    0.0000 </r>
       <r>   24.3961    0.0000 </r>
       <r>   25.2451    0.0000 </r>
       <r>   25.2452    0.0000 </r>
       <r>   25.9725    0.0000 </r>
       <r>   26.5254    0.0000 </r>
       <r>   27.1622    0.0000 </r>
       <r>   27.2967    0.0000 </r>
       <r>   28.0397    0.0000 </r>
       <r>   29.3838    0.0000 </r>
       <r>   29.8793    0.0000 </r>
       <r>   30.7489    0.0000 </r>
       <r>   30.7610    0.0000 </r>
       <r>   31.1793    0.0000 </r>
       <r>   32.9283    0.0000 </r>
       <r>   33.5646    0.0000 </r>
       <r>   34.6718    0.0000 </r>
       <r>   34.7941    0.0000 </r>
       <r>   36.7687    0.0000 </r>
       <r>   37.1035    0.0000 </r>
       <r>   37.6672    0.0000 </r>
       <r>   38.2321    0.0000 </r>
       <r>   38.6941    0.0000 </r>
       <r>   39.9509    0.0000 </r>
       <r>   40.5506    0.0000 </r>
       <r>   40.8495    0.0000 </r>
       <r>   42.0174    0.0000 </r>
       <r>   42.3405    0.0000 </r>
       <r>   42.9577    0.0000 </r>
       <r>   43.0440    0.0000 </r>
       <r>   43.6518    0.0000 </r>
       <r>   44.1059    0.0000 </r>
       <r>   44.3487    0.0000 </r>
       <r>   45.8727    0.0000 </r>
       <r>   46.0069    0.0000 </r>
       <r>   47.0779    0.0000 </r>
       <r>   47.8487    0.0000 </r>
       <r>   48.0261    0.0000 </r>
       <r>   48.8146    0.0000 </r>
       <r>   49.3578    0.0000 </r>
       <r>   50.4440    0.0000 </r>
       <r>   51.5088    0.0000 </r>
       <r>   52.5117    0.0000 </r>
       <r>   52.6661    0.0000 </r>
       <r>   53.2962    0.0000 </r>
       <r>   53.9281    0.0000 </r>
       <r>   54.1132    0.0000 </r>
       <r>   55.1822    0.0000 </r>
       <r>   55.3892    0.0000 </r>
       <r>   56.4248    0.0000 </r>
       <r>   56.4726    0.0000 </r>
       <r>   56.6115    0.0000 </r>
       <r>   57.3415    0.0000 </r>
       <r>   59.0821    0.0000 </r>
       <r>   59.6626    0.0000 </r>
      </set>
      <set comment="kpoint 13">
       <r>  -29.6737    1.0000 </r>
       <r>  -29.6691    1.0000 </r>
       <r>  -29.5922    1.0000 </r>
       <r>  -29.5866    1.0000 </r>
       <r>  -29.5486    1.0000 </r>
       <r>  -29.5322    1.0000 </r>
       <r>  -14.2935    1.0000 </r>
       <r>  -13.5929    1.0000 </r>
       <r>  -13.1172    1.0000 </r>
       <r>  -12.9931    1.0000 </r>
       <r>   -1.7336    1.0000 </r>
       <r>   -1.5070    1.0000 </r>
       <r>   -0.9359    1.0000 </r>
       <r>   -0.6314    1.0000 </r>
       <r>   -0.3075    1.0000 </r>
       <r>    0.4991    1.0000 </r>
       <r>    0.6788    1.0000 </r>
       <r>    1.1323    1.0000 </r>
       <r>    1.2072    1.0000 </r>
       <r>    1.9277    1.0000 </r>
       <r>    2.5037    1.0000 </r>
       <r>    2.9840    1.0000 </r>
       <r>    5.8340    0.0000 </r>
       <r>    6.0282    0.0000 </r>
       <r>    6.1837    0.0000 </r>
       <r>    6.2831    0.0000 </r>
       <r>    6.5472    0.0000 </r>
       <r>    7.3851    0.0000 </r>
       <r>    8.6870    0.0000 </r>
       <r>    9.3818    0.0000 </r>
       <r>    9.6080    0.0000 </r>
       <r>   10.3359    0.0000 </r>
       <r>   12.7151    0.0000 </r>
       <r>   14.6928    0.0000 </r>
       <r>   16.1796    0.0000 </r>
       <r>   17.8513    0.0000 </r>
       <r>   18.6340    0.0000 </r>
       <r>   19.4296    0.0000 </r>
       <r>   21.2216    0.0000 </r>
       <r>   21.8512    0.0000 </r>
       <r>   21.8836    0.0000 </r>
       <r>   23.2779    0.0000 </r>
       <r>   24.7889    0.0000 </r>
       <r>   25.2406    0.0000 </r>
       <r>   25.2450    0.0000 </r>
       <r>   25.2993    0.0000 </r>
       <r>   26.1046    0.0000 </r>
       <r>   26.8386    0.0000 </r>
       <r>   26.8549    0.0000 </r>
       <r>   28.0376    0.0000 </r>
       <r>   29.3435    0.0000 </r>
       <r>   29.9572    0.0000 </r>
       <r>   30.2059    0.0000 </r>
       <r>   31.6073    0.0000 </r>
       <r>   31.9003    0.0000 </r>
       <r>   32.5370    0.0000 </r>
       <r>   33.9576    0.0000 </r>
       <r>   34.9366    0.0000 </r>
       <r>   35.5257    0.0000 </r>
       <r>   36.8201    0.0000 </r>
       <r>   37.6200    0.0000 </r>
       <r>   38.2805    0.0000 </r>
       <r>   38.3821    0.0000 </r>
       <r>   40.0013    0.0000 </r>
       <r>   40.2397    0.0000 </r>
       <r>   40.5718    0.0000 </r>
       <r>   41.4329    0.0000 </r>
       <r>   41.8617    0.0000 </r>
       <r>   42.2829    0.0000 </r>
       <r>   42.3988    0.0000 </r>
       <r>   42.9921    0.0000 </r>
       <r>   43.4169    0.0000 </r>
       <r>   44.1614    0.0000 </r>
       <r>   44.1702    0.0000 </r>
       <r>   45.2551    0.0000 </r>
       <r>   46.1081    0.0000 </r>
       <r>   46.2895    0.0000 </r>
       <r>   46.9395    0.0000 </r>
       <r>   48.2480    0.0000 </r>
       <r>   48.6261    0.0000 </r>
       <r>   49.3787    0.0000 </r>
       <r>   49.7828    0.0000 </r>
       <r>   51.0018    0.0000 </r>
       <r>   52.0904    0.0000 </r>
       <r>   52.4804    0.0000 </r>
       <r>   52.8971    0.0000 </r>
       <r>   53.8314    0.0000 </r>
       <r>   54.3113    0.0000 </r>
       <r>   55.2003    0.0000 </r>
       <r>   55.4218    0.0000 </r>
       <r>   55.7593    0.0000 </r>
       <r>   56.4395    0.0000 </r>
       <r>   56.9558    0.0000 </r>
       <r>   57.3611    0.0000 </r>
       <r>   58.3893    0.0000 </r>
       <r>   59.1894    0.0000 </r>
      </set>
      <set comment="kpoint 14">
       <r>  -29.6510    1.0000 </r>
       <r>  -29.6510    1.0000 </r>
       <r>  -29.6114    1.0000 </r>
       <r>  -29.6114    1.0000 </r>
       <r>  -29.5398    1.0000 </r>
       <r>  -29.5398    1.0000 </r>
       <r>  -13.9225    1.0000 </r>
       <r>  -13.9225    1.0000 </r>
       <r>  -13.0939    1.0000 </r>
       <r>  -13.0939    1.0000 </r>
       <r>   -1.4413    1.0000 </r>
       <r>   -1.4413    1.0000 </r>
       <r>   -0.6434    1.0000 </r>
       <r>   -0.6434    1.0000 </r>
       <r>    0.1069    1.0000 </r>
       <r>    0.1069    1.0000 </r>
       <r>    0.6195    1.0000 </r>
       <r>    0.6195    1.0000 </r>
       <r>    1.3408    1.0000 </r>
       <r>    1.3408    1.0000 </r>
[...]
       <r>   58.3831    0.0000 </r>
       <r>   58.4702    0.0000 </r>
       <r>   59.5844    0.0000 </r>
       <r>   59.6710    0.0000 </r>
      </set>
      <set comment="kpoint 126">
       <r>  -29.9669    1.0000 </r>
       <r>  -29.9669    1.0000 </r>
       <r>  -29.5689    1.0000 </r>
       <r>  -29.5689    1.0000 </r>
       <r>  -29.5489    1.0000 </r>
       <r>  -29.5489    1.0000 </r>
       <r>  -13.3451    1.0000 </r>
       <r>  -13.3451    1.0000 </r>
       <r>  -13.2447    1.0000 </r>
       <r>  -13.2447    1.0000 </r>
       <r>   -1.1466    1.0000 </r>
       <r>   -1.1466    1.0000 </r>
       <r>   -0.3909    1.0000 </r>
       <r>   -0.3909    1.0000 </r>
       <r>   -0.2634    1.0000 </r>
       <r>   -0.2634    1.0000 </r>
       <r>    0.5814    1.0000 </r>
       <r>    0.5814    1.0000 </r>
       <r>    0.9897    1.0000 </r>
       <r>    0.9897    1.0000 </r>
       <r>    1.9450    1.0000 </r>
       <r>    1.9450    1.0000 </r>
       <r>    6.3373    0.0000 </r>
       <r>    6.3373    0.0000 </r>
       <r>    6.5855    0.0000 </r>
       <r>    6.5855    0.0000 </r>
       <r>    7.0401    0.0000 </r>
       <r>    7.0401    0.0000 </r>
       <r>    8.8928    0.0000 </r>
       <r>    8.8928    0.0000 </r>
       <r>    9.4834    0.0000 </r>
       <r>    9.4834    0.0000 </r>
       <r>   15.7179    0.0000 </r>
       <r>   15.7179    0.0000 </r>
       <r>   18.6791    0.0000 </r>
       <r>   18.6791    0.0000 </r>
       <r>   18.8464    0.0000 </r>
       <r>   18.8464    0.0000 </r>
       <r>   20.7158    0.0000 </r>
       <r>   20.7158    0.0000 </r>
       <r>   21.0409    0.0000 </r>
       <r>   21.0409    0.0000 </r>
       <r>   22.6386    0.0000 </r>
       <r>   22.6386    0.0000 </r>
       <r>   25.2453    0.0000 </r>
       <r>   25.2453    0.0000 </r>
       <r>   26.0029    0.0000 </r>
       <r>   26.0029    0.0000 </r>
       <r>   28.0238    0.0000 </r>
       <r>   28.0238    0.0000 </r>
       <r>   30.7454    0.0000 </r>
       <r>   30.7454    0.0000 </r>
       <r>   31.1794    0.0000 </r>
       <r>   31.1794    0.0000 </r>
       <r>   33.4038    0.0000 </r>
       <r>   33.4038    0.0000 </r>
       <r>   34.2182    0.0000 </r>
       <r>   34.2182    0.0000 </r>
       <r>   36.6266    0.0000 </r>
       <r>   36.6266    0.0000 </r>
       <r>   38.9950    0.0000 </r>
       <r>   38.9950    0.0000 </r>
       <r>   39.1582    0.0000 </r>
       <r>   39.1582    0.0000 </r>
       <r>   40.0890    0.0000 </r>
       <r>   40.0890    0.0000 </r>
       <r>   42.0024    0.0000 </r>
       <r>   42.0024    0.0000 </r>
       <r>   42.4472    0.0000 </r>
       <r>   42.4472    0.0000 </r>
       <r>   44.0573    0.0000 </r>
       <r>   44.0573    0.0000 </r>
       <r>   45.4972    0.0000 </r>
       <r>   45.4972    0.0000 </r>
       <r>   46.7104    0.0000 </r>
       <r>   46.7104    0.0000 </r>
       <r>   48.1884    0.0000 </r>
       <r>   48.1884    0.0000 </r>
       <r>   49.3072    0.0000 </r>
       <r>   49.3073    0.0000 </r>
       <r>   49.9910    0.0000 </r>
       <r>   49.9910    0.0000 </r>
       <r>   50.7140    0.0000 </r>
       <r>   50.7140    0.0000 </r>
       <r>   51.2872    0.0000 </r>
       <r>   51.2872    0.0000 </r>
       <r>   51.8685    0.0000 </r>
       <r>   51.8685    0.0000 </r>
       <r>   54.5159    0.0000 </r>
       <r>   54.5159    0.0000 </r>
       <r>   57.5869    0.0000 </r>
       <r>   57.5899    0.0000 </r>
       <r>   58.3963    0.0000 </r>
       <r>   58.4114    0.0000 </r>
       <r>   59.5940    0.0000 </r>
       <r>   59.6753    0.0000 </r>
      </set>
     </set>
    </set>
   </array>
  </eigenvalues>
  <separator name="orbital magnetization" >
   <v name="MAGDIPOLOUT">      0.00000000      0.00000000      0.00000000</v>
  </separator>
  <dos>
   <i name="efermi">      3.63338356 </i>
   <total>
    <array>
     <dimension dim="1">gridpoints</dimension>
     <dimension dim="2">spin</dimension>
     <field>energy</field>
     <field>total</field>
     <field>integrated</field>
     <set>
      <set comment="spin 1">
       <r>   -34.4864     0.0000     0.0000 </r>
       <r>   -34.1557     0.0000     0.0000 </r>
       <r>   -33.8249     0.0000     0.0000 </r>
       <r>   -33.4942     0.0000     0.0000 </r>
       <r>   -33.1634     0.0000     0.0000 </r>
       <r>   -32.8327     0.0000     0.0000 </r>
       <r>   -32.5019     0.0000     0.0000 </r>
       <r>   -32.1711     0.0000     0.0000 </r>
       <r>   -31.8404     0.0000     0.0000 </r>
       <r>   -31.5096     0.0000     0.0000 </r>
       <r>   -31.1789     0.0000     0.0000 </r>
       <r>   -30.8481     0.0000     0.0000 </r>
       <r>   -30.5174     0.0000     0.0000 </r>
       <r>   -30.1866     0.0000     0.0000 </r>
       <r>   -29.8558     4.0858     1.3514 </r>
       <r>   -29.5251    27.3363    10.3949 </r>
       <r>   -29.1943     4.8239    12.0000 </r>
       <r>   -28.8636     0.0000    12.0000 </r>
       <r>   -28.5328     0.0000    12.0000 </r>
       <r>   -28.2021     0.0000    12.0000 </r>
       <r>   -27.8713     0.0000    12.0000 </r>
       <r>   -27.5405     0.0000    12.0000 </r>
       <r>   -27.2098     0.0000    12.0000 </r>
       <r>   -26.8790     0.0000    12.0000 </r>
       <r>   -26.5483     0.0000    12.0000 </r>
       <r>   -26.2175     0.0000    12.0000 </r>
       <r>   -25.8867     0.0000    12.0000 </r>
       <r>   -25.5560     0.0000    12.0000 </r>
       <r>   -25.2252     0.0000    12.0000 </r>
       <r>   -24.8945     0.0000    12.0000 </r>
       <r>   -24.5637     0.0000    12.0000 </r>
       <r>   -24.2330     0.0000    12.0000 </r>
       <r>   -23.9022     0.0000    12.0000 </r>
       <r>   -23.5714     0.0000    12.0000 </r>
       <r>   -23.2407     0.0000    12.0000 </r>
       <r>   -22.9099     0.0000    12.0000 </r>
       <r>   -22.5792     0.0000    12.0000 </r>
       <r>   -22.2484     0.0000    12.0000 </r>
       <r>   -21.9177     0.0000    12.0000 </r>
       <r>   -21.5869     0.0000    12.0000 </r>
       <r>   -21.2561     0.0000    12.0000 </r>
       <r>   -20.9254     0.0000    12.0000 </r>
       <r>   -20.5946     0.0000    12.0000 </r>
       <r>   -20.2639     0.0000    12.0000 </r>
       <r>   -19.9331     0.0000    12.0000 </r>
       <r>   -19.6023     0.0000    12.0000 </r>
       <r>   -19.2716     0.0000    12.0000 </r>
       <r>   -18.9408     0.0000    12.0000 </r>
       <r>   -18.6101     0.0000    12.0000 </r>
       <r>   -18.2793     0.0000    12.0000 </r>
       <r>   -17.9486     0.0000    12.0000 </r>
       <r>   -17.6178     0.0000    12.0000 </r>
       <r>   -17.2870     0.0000    12.0000 </r>
       <r>   -16.9563     0.0000    12.0000 </r>
       <r>   -16.6255     0.0000    12.0000 </r>
       <r>   -16.2948     0.0000    12.0000 </r>
       <r>   -15.9640     0.0000    12.0000 </r>
       <r>   -15.6333     0.0000    12.0000 </r>
       <r>   -15.3025     0.0000    12.0000 </r>
       <r>   -14.9717     0.0000    12.0000 </r>
       <r>   -14.6410     0.1272    12.0421 </r>
       <r>   -14.3102     0.6734    12.2648 </r>
       <r>   -13.9795     1.7376    12.8396 </r>
       <r>   -13.6487     3.5716    14.0210 </r>
       <r>   -13.3180     5.5980    15.8728 </r>
       <r>   -12.9872     9.6544    19.0669 </r>
       <r>   -12.6564     2.7973    20.0000 </r>
       <r>   -12.3257     0.0000    20.0000 </r>
       <r>   -11.9949     0.0000    20.0000 </r>
       <r>   -11.6642     0.0000    20.0000 </r>
       <r>   -11.3334     0.0000    20.0000 </r>
       <r>   -11.0026     0.0000    20.0000 </r>
       <r>   -10.6719     0.0000    20.0000 </r>
       <r>   -10.3411     0.0000    20.0000 </r>
       <r>   -10.0104     0.0000    20.0000 </r>
       <r>    -9.6796     0.0000    20.0000 </r>
       <r>    -9.3489     0.0000    20.0000 </r>
       <r>    -9.0181     0.0000    20.0000 </r>
       <r>    -8.6873     0.0000    20.0000 </r>
       <r>    -8.3566     0.0000    20.0000 </r>
       <r>    -8.0258     0.0000    20.0000 </r>
       <r>    -7.6951     0.0000    20.0000 </r>
       <r>    -7.3643     0.0000    20.0000 </r>
       <r>    -7.0336     0.0000    20.0000 </r>
       <r>    -6.7028     0.0000    20.0000 </r>
       <r>    -6.3720     0.0000    20.0000 </r>
       <r>    -6.0413     0.0000    20.0000 </r>
       <r>    -5.7105     0.0000    20.0000 </r>
       <r>    -5.3798     0.0000    20.0000 </r>
       <r>    -5.0490     0.0000    20.0000 </r>
       <r>    -4.7182     0.0000    20.0000 </r>
       <r>    -4.3875     0.0000    20.0000 </r>
       <r>    -4.0567     0.0000    20.0000 </r>
       <r>    -3.7260     0.0000    20.0000 </r>
       <r>    -3.3952     0.0000    20.0000 </r>
       <r>    -3.0645     0.0000    20.0000 </r>
       <r>    -2.7337     0.0000    20.0000 </r>
       <r>    -2.4029     0.0179    20.0059 </r>
       <r>    -2.0722     0.8979    20.3029 </r>
       <r>    -1.7414     1.4889    20.7954 </r>
       <r>    -1.4107     4.7016    22.3505 </r>
       <r>    -1.0799     6.7991    24.6007 </r>
       <r>    -0.7492     6.5093    26.7562 </r>
       <r>    -0.4184     4.9309    28.3928 </r>
       <r>    -0.0876     3.4108    29.5220 </r>
       <r>     0.2431     4.6195    31.0506 </r>
       <r>     0.5739     3.0199    32.0505 </r>
       <r>     0.9046     5.9590    34.0234 </r>
       <r>     1.2354     5.1990    35.7440 </r>
       <r>     1.5661     5.6628    37.6209 </r>
       <r>     1.8969     5.1818    39.3373 </r>
       <r>     2.2277     5.1750    41.0500 </r>
       <r>     2.5584     4.9119    42.6761 </r>
       <r>     2.8892     2.8168    43.6091 </r>
       <r>     3.2199     0.9389    43.9205 </r>
       <r>     3.5507     0.2402    44.0000 </r>
       <r>     3.8815     0.0000    44.0000 </r>
       <r>     4.2122     0.0000    44.0000 </r>
       <r>     4.5430     0.0000    44.0000 </r>
       <r>     4.8737     0.0000    44.0000 </r>
       <r>     5.2045     0.0315    44.0104 </r>
       <r>     5.5352     2.6768    44.8958 </r>
       <r>     5.8660     4.4090    46.3556 </r>
       <r>     6.1968     6.9193    48.6454 </r>
       <r>     6.5275     7.0546    50.9789 </r>
       <r>     6.8583     7.1109    53.3336 </r>
       <r>     7.1890     4.5055    54.8259 </r>
       <r>     7.5198     2.9749    55.8104 </r>
       <r>     7.8505     0.5190    55.9831 </r>
       <r>     8.1813     0.3460    56.0976 </r>
       <r>     8.5121     2.4615    56.9118 </r>
       <r>     8.8428     3.3219    58.0116 </r>
       <r>     9.1736     2.4839    58.8334 </r>
       <r>     9.5043     3.8198    60.0973 </r>
       <r>     9.8351     4.4534    61.5724 </r>
       <r>    10.1658     3.2505    62.6527 </r>
       <r>    10.4966     3.3683    63.7675 </r>
       <r>    10.8274     0.6085    63.9696 </r>
       <r>    11.1581     0.1048    64.0047 </r>
       <r>    11.4889     0.0709    64.0281 </r>
       <r>    11.8196     0.1151    64.0662 </r>
       <r>    12.1504     0.1804    64.1258 </r>
       <r>    12.4812     0.2034    64.1931 </r>
       <r>    12.8119     0.4596    64.3452 </r>
       <r>    13.1427     0.4676    64.5000 </r>
       <r>    13.4734     0.1998    64.5661 </r>
       <r>    13.8042     0.8565    64.8497 </r>
       <r>    14.1349     0.6613    65.0684 </r>
       <r>    14.4657     1.1865    65.4609 </r>
       <r>    14.7965     1.1701    65.8480 </r>
       <r>    15.1272     2.7891    66.7706 </r>
       <r>    15.4580     1.4360    67.2469 </r>
       <r>    15.7887     1.1370    67.6233 </r>
       <r>    16.1195     1.3603    68.0740 </r>
       <r>    16.4502     0.8485    68.3546 </r>
       <r>    16.7810     1.2916    68.7819 </r>
       <r>    17.1118     1.8424    69.3914 </r>
       <r>    17.4425     1.9218    70.0283 </r>
       <r>    17.7733     1.2511    70.4431 </r>
       <r>    18.1040     3.1103    71.4720 </r>
       <r>    18.4348     2.3309    72.2436 </r>
       <r>    18.7656     5.0747    73.9224 </r>
       <r>    19.0963     2.1566    74.6372 </r>
       <r>    19.4271     2.5675    75.4885 </r>
       <r>    19.7578     1.7150    76.0569 </r>
       <r>    20.0886     0.7569    76.3084 </r>
       <r>    20.4193     1.7089    76.8740 </r>
       <r>    20.7501     2.9312    77.8449 </r>
       <r>    21.0809     3.0323    78.8491 </r>
       <r>    21.4116     4.1899    80.2367 </r>
       <r>    21.7424     2.8993    81.1978 </r>
       <r>    22.0731     3.0965    82.2237 </r>
       <r>    22.4039     2.0583    82.9060 </r>
       <r>    22.7346     2.4035    83.7019 </r>
       <r>    23.0654     1.6906    84.2631 </r>
       <r>    23.3962     2.2615    85.0117 </r>
       <r>    23.7269     1.9598    85.6600 </r>
       <r>    24.0577     1.5025    86.1577 </r>
       <r>    24.3884     0.9034    86.4565 </r>
       <r>    24.7192     1.4824    86.9468 </r>
       <r>    25.0499     1.5072    87.4465 </r>
       <r>    25.3807    14.0718    92.1022 </r>
       <r>    25.7115     1.5525    92.6171 </r>
       <r>    26.0422     2.1671    93.3355 </r>
       <r>    26.3730     1.2981    93.7665 </r>
       <r>    26.7037     3.0703    94.7827 </r>
       <r>    27.0345     2.4469    95.5932 </r>
       <r>    27.3653     2.4128    96.3912 </r>
       <r>    27.6960     1.4623    96.8765 </r>
       <r>    28.0268     1.7175    97.4446 </r>
       <r>    28.3575     2.2774    98.1984 </r>
       <r>    28.6883     3.2141    99.2619 </r>
       <r>    29.0190     1.1131    99.6312 </r>
       <r>    29.3498     3.1472   100.6726 </r>
       <r>    29.6806     3.5137   101.8355 </r>
       <r>    30.0113     3.4332   102.9723 </r>
       <r>    30.3421     1.9301   103.6155 </r>
       <r>    30.6728     2.2871   104.3721 </r>
       <r>    31.0036     2.9534   105.3493 </r>
       <r>    31.3343     2.1194   106.0511 </r>
       <r>    31.6651     2.7261   106.9539 </r>
       <r>    31.9959     2.4643   107.7709 </r>
       <r>    32.3266     3.4685   108.9188 </r>
       <r>    32.6574     2.4248   109.7215 </r>
       <r>    32.9881     1.7404   110.2994 </r>
       <r>    33.3189     2.5432   111.1408 </r>
       <r>    33.6496     3.3998   112.2658 </r>
       <r>    33.9804     1.4082   112.7320 </r>
       <r>    34.3112     0.9998   113.0627 </r>
       <r>    34.6419     1.7316   113.6359 </r>
       <r>    34.9727     3.0498   114.6465 </r>
       <r>    35.3034     2.2024   115.3761 </r>
       <r>    35.6342     2.5974   116.2356 </r>
       <r>    35.9650     2.7251   117.1375 </r>
       <r>    36.2957     3.3211   118.2364 </r>
       <r>    36.6265     2.3186   119.0044 </r>
       <r>    36.9572     2.8251   119.9397 </r>
       <r>    37.2880     1.7345   120.5173 </r>
       <r>    37.6187     1.5483   121.0294 </r>
       <r>    37.9495     3.0816   122.0490 </r>
       <r>    38.2803     2.3264   122.8205 </r>
       <r>    38.6110     2.1597   123.5373 </r>
       <r>    38.9418     3.3244   124.6370 </r>
       <r>    39.2725     2.7752   125.5561 </r>
       <r>    39.6033     2.4873   126.3800 </r>
       <r>    39.9340     3.2877   127.4687 </r>
       <r>    40.2648     2.7058   128.3638 </r>
       <r>    40.5956     2.4740   129.1861 </r>
       <r>    40.9263     3.5488   130.3609 </r>
       <r>    41.2571     4.1979   131.7507 </r>
       <r>    41.5878     3.9252   133.0504 </r>
       <r>    41.9186     3.6340   134.2542 </r>
       <r>    42.2494     4.4056   135.7118 </r>
       <r>    42.5801     4.2969   137.1340 </r>
       <r>    42.9109     4.5266   138.6328 </r>
       <r>    43.2416     3.5644   139.8121 </r>
       <r>    43.5724     4.4102   141.2708 </r>
       <r>    43.9031     4.7037   142.8277 </r>
       <r>    44.2339     3.2484   143.9027 </r>
       <r>    44.5647     4.2131   145.2985 </r>
       <r>    44.8954     5.3177   147.0574 </r>
       <r>    45.2262     2.8607   148.0057 </r>
       <r>    45.5569     2.0797   148.6951 </r>
       <r>    45.8877     3.2090   149.7567 </r>
       <r>    46.2184     4.4010   151.2131 </r>
       <r>    46.5492     2.7390   152.1198 </r>
       <r>    46.8800     3.4565   153.2631 </r>
       <r>    47.2107     1.9311   153.9024 </r>
       <r>    47.5415     3.8156   155.1646 </r>
       <r>    47.8722     4.0461   156.5032 </r>
       <r>    48.2030     2.8001   157.4317 </r>
       <r>    48.5337     3.0475   158.4400 </r>
       <r>    48.8645     2.8112   159.3702 </r>
       <r>    49.1953     2.5374   160.2095 </r>
       <r>    49.5260     2.3236   160.9800 </r>
       <r>    49.8568     3.0966   162.0047 </r>
       <r>    50.1875     3.1775   163.0573 </r>
       <r>    50.5183     1.8809   163.6794 </r>
       <r>    50.8491     4.2730   165.0940 </r>
       <r>    51.1798     3.4600   166.2407 </r>
       <r>    51.5106     2.5572   167.0869 </r>
       <r>    51.8413     2.9235   168.0541 </r>
       <r>    52.1721     2.9930   169.0465 </r>
       <r>    52.5028     3.1036   170.0735 </r>
       <r>    52.8336     4.0184   171.4035 </r>
       <r>    53.1644     3.9236   172.7020 </r>
       <r>    53.4951     3.8896   173.9912 </r>
       <r>    53.8259     3.5440   175.1634 </r>
       <r>    54.1566     3.3912   176.2864 </r>
       <r>    54.4874     4.3776   177.7348 </r>
       <r>    54.8181     2.6251   178.6054 </r>
       <r>    55.1489     3.0887   179.6272 </r>
       <r>    55.4797     4.3948   181.0837 </r>
       <r>    55.8104     3.4431   182.2242 </r>
       <r>    56.1412     2.7581   183.1367 </r>
       <r>    56.4719     2.6863   184.0253 </r>
       <r>    56.8027     2.9535   185.0022 </r>
       <r>    57.1335     4.3559   186.4457 </r>
       <r>    57.4642     3.3546   187.5557 </r>
       <r>    57.7950     3.0653   188.5703 </r>
       <r>    58.1257     2.4485   189.3830 </r>
       <r>    58.4565     2.6917   190.2736 </r>
       <r>    58.7872     1.7379   190.8487 </r>
       <r>    59.1180     2.0317   191.5209 </r>
       <r>    59.4488     0.6736   191.7438 </r>
       <r>    59.7795     0.5826   191.9365 </r>
       <r>    60.1103     0.0430   191.9507 </r>
       <r>    60.4410     0.1490   192.0000 </r>
       <r>    60.7718     0.0000   192.0000 </r>
       <r>    61.1025     0.0000   192.0000 </r>
       <r>    61.4333     0.0000   192.0000 </r>
       <r>    61.7641     0.0000   192.0000 </r>
       <r>    62.0948     0.0000   192.0000 </r>
       <r>    62.4256     0.0000   192.0000 </r>
       <r>    62.7563     0.0000   192.0000 </r>
       <r>    63.0871     0.0000   192.0000 </r>
       <r>    63.4178     0.0000   192.0000 </r>
       <r>    63.7486     0.0000   192.0000 </r>
       <r>    64.0794     0.0000   192.0000 </r>
       <r>    64.4101     0.0000   192.0000 </r>
       <r>    64.7409     0.0000   192.0000 </r>
      </set>
     </set>
    </array>
   </total>
  </dos>
 </calculation>
 <structure name="finalpos" >
  <crystal>
   <varray name="basis" >
    <v>       4.60094756      -0.00000000       0.00000000 </v>
    <v>       0.00000000       4.60094756       0.00000000 </v>
    <v>      -0.00000000      -0.00000000       2.94242885 </v>
   </varray>
   <i name="volume">     62.28744797 </i>
   <varray name="rec_basis" >
    <v>       0.21734653      -0.00000000       0.00000000 </v>
    <v>       0.00000000       0.21734653       0.00000000 </v>
    <v>      -0.00000000      -0.00000000       0.33985529 </v>
   </varray>
  </crystal>
  <varray name="positions" >
   <v>       0.50000000       0.50000000       0.50000000 </v>
   <v>       0.00000000       0.00000000       0.00000000 </v>
   <v>       0.19567008       0.80432992       0.50000000 </v>
   <v>       0.80432992       0.19567008       0.50000000 </v>
   <v>       0.30432992       0.30432992       0.00000000 </v>
   <v>       0.69567008       0.69567008       0.00000000 </v>
  </varray>
 </structure>
</modeling>
